%VERSION  VERSION_STAMP = V0001.000  DATE = 05/13/26  17:14:44                  
%FLAG TITLE                                                                     
%FORMAT(20a4)                                                                   
default_name                                                                    
%FLAG POINTERS                                                                  
%FORMAT(10I8)                                                                   
     656      15     234     452     554     694    1084    1326       0       0
    3562      38     452     694    1326      39      75      56      27       0
       0       0       0       0       0       0       0       0      33       0
       0
%FLAG ATOM_NAME                                                                 
%FORMAT(20a4)                                                                   
HO5'O5' C5' H5' H5''C4' H4' O4' C1' H1' N9  C8  H8  N7  C5  C6  N6  H61 H62 N1  
C2  H2  N3  C4  C3' H3' C2' H2' H2''O3' P   OP1 OP2 O5' C5' H5' H5''C4' H4' O4' 
C1' H1' N9  C8  H8  N7  C5  C6  N6  H61 H62 N1  C2  H2  N3  C4  C3' H3' C2' H2' 
H2''O3' P   OP1 OP2 O5' C5' H5' H5''C4' H4' O4' C1' H1' N9  C8  H8  N7  C5  C6  
N6  H61 H62 N1  C2  H2  N3  C4  C3' H3' C2' H2' H2''O3' P   OP1 OP2 O5' C5' H5' 
H5''C4' H4' O4' C1' H1' N9  C8  H8  N7  C5  C6  N6  H61 H62 N1  C2  H2  N3  C4  
C3' H3' C2' H2' H2''O3' P   OP1 OP2 O5' C5' H5' H5''C4' H4' O4' C1' H1' N9  C8  
H8  N7  C5  C6  N6  H61 H62 N1  C2  H2  N3  C4  C3' H3' C2' H2' H2''O3' P   OP1 
OP2 O5' C5' H5' H5''C4' H4' O4' C1' H1' N9  C8  H8  N7  C5  C6  N6  H61 H62 N1  
C2  H2  N3  C4  C3' H3' C2' H2' H2''O3' P   OP1 OP2 O5' C5' H5' H5''C4' H4' O4' 
C1' H1' N9  C8  H8  N7  C5  C6  N6  H61 H62 N1  C2  H2  N3  C4  C3' H3' C2' H2' 
H2''O3' P   OP1 OP2 O5' C5' H5' H5''C4' H4' O4' C1' H1' N9  C8  H8  N7  C5  C6  
N6  H61 H62 N1  C2  H2  N3  C4  C3' H3' C2' H2' H2''O3' P   OP1 OP2 O5' C5' H5' 
H5''C4' H4' O4' C1' H1' N9  C8  H8  N7  C5  C6  N6  H61 H62 N1  C2  H2  N3  C4  
C3' H3' C2' H2' H2''O3' P   OP1 OP2 O5' C5' H5' H5''C4' H4' O4' C1' H1' N9  C8  
H8  N7  C5  C6  N6  H61 H62 N1  C2  H2  N3  C4  C3' H3' C2' H2' H2''O3' HO3'HO5'
O5' C5' H5' H5''C4' H4' O4' C1' H1' N1  C6  H6  C5  C7  H71 H72 H73 C4  O4  N3  
H3  C2  O2  C3' H3' C2' H2' H2''O3' P   OP1 OP2 O5' C5' H5' H5''C4' H4' O4' C1' 
H1' N1  C6  H6  C5  C7  H71 H72 H73 C4  O4  N3  H3  C2  O2  C3' H3' C2' H2' H2''
O3' P   OP1 OP2 O5' C5' H5' H5''C4' H4' O4' C1' H1' N1  C6  H6  C5  C7  H71 H72 
H73 C4  O4  N3  H3  C2  O2  C3' H3' C2' H2' H2''O3' P   OP1 OP2 O5' C5' H5' H5''
C4' H4' O4' C1' H1' N1  C6  H6  C5  C7  H71 H72 H73 C4  O4  N3  H3  C2  O2  C3' 
H3' C2' H2' H2''O3' P   OP1 OP2 O5' C5' H5' H5''C4' H4' O4' C1' H1' N1  C6  H6  
C5  C7  H71 H72 H73 C4  O4  N3  H3  C2  O2  C3' H3' C2' H2' H2''O3' P   OP1 OP2 
O5' C5' H5' H5''C4' H4' O4' C1' H1' N1  C6  H6  C5  C7  H71 H72 H73 C4  O4  N3  
H3  C2  O2  C3' H3' C2' H2' H2''O3' P   OP1 OP2 O5' C5' H5' H5''C4' H4' O4' C1' 
H1' N1  C6  H6  C5  C7  H71 H72 H73 C4  O4  N3  H3  C2  O2  C3' H3' C2' H2' H2''
O3' P   OP1 OP2 O5' C5' H5' H5''C4' H4' O4' C1' H1' N1  C6  H6  C5  C7  H71 H72 
H73 C4  O4  N3  H3  C2  O2  C3' H3' C2' H2' H2''O3' P   OP1 OP2 O5' C5' H5' H5''
C4' H4' O4' C1' H1' N1  C6  H6  C5  C7  H71 H72 H73 C4  O4  N3  H3  C2  O2  C3' 
H3' C2' H2' H2''O3' P   OP1 OP2 O5' C5' H5' H5''C4' H4' O4' C1' H1' N1  C6  H6  
C5  C7  H71 H72 H73 C4  O4  N3  H3  C2  O2  C3' H3' C2' H2' H2''O3' HO3'Na+ Na+ 
Na+ Na+ Na+ Na+ Na+ Na+ Na+ Na+ Na+ Na+ Na+ Na+ Na+ Na+ Na+ Na+ 
%FLAG CHARGE                                                                    
%FORMAT(5E16.8)                                                                 
  8.05790106E+00 -1.15128491E+01 -1.25733870E-01  1.37396142E+00  1.37396142E+00
  2.96841267E+00  2.14294248E+00 -6.72585093E+00  7.85381130E-01  3.34925874E+00
 -4.88357640E-01  2.92832361E+00  3.42032571E+00 -1.12522703E+01  1.32111675E+00
  1.25679203E+01 -1.66242043E+01  7.59323241E+00  7.59323241E+00 -1.38926815E+01
  1.04158667E+01  1.08969354E+00 -1.35154799E+01  6.92447400E+00  1.29924999E+00
  1.79489655E+00 -1.55618442E+00  1.30836114E+00  1.30836114E+00 -9.53390736E+00
  2.12453796E+01 -1.41423270E+01 -1.41423270E+01 -9.02732742E+00 -1.25733870E-01
  1.37396142E+00  1.37396142E+00  2.96841267E+00  2.14294248E+00 -6.72585093E+00
  7.85381130E-01  3.34925874E+00 -4.88357640E-01  2.92832361E+00  3.42032571E+00
 -1.12522703E+01  1.32111675E+00  1.25679203E+01 -1.66242043E+01  7.59323241E+00
  7.59323241E+00 -1.38926815E+01  1.04158667E+01  1.08969354E+00 -1.35154799E+01
  6.92447400E+00  1.29924999E+00  1.79489655E+00 -1.55618442E+00  1.30836114E+00
  1.30836114E+00 -9.53390736E+00  2.12453796E+01 -1.41423270E+01 -1.41423270E+01
 -9.02732742E+00 -1.25733870E-01  1.37396142E+00  1.37396142E+00  2.96841267E+00
  2.14294248E+00 -6.72585093E+00  7.85381130E-01  3.34925874E+00 -4.88357640E-01
  2.92832361E+00  3.42032571E+00 -1.12522703E+01  1.32111675E+00  1.25679203E+01
 -1.66242043E+01  7.59323241E+00  7.59323241E+00 -1.38926815E+01  1.04158667E+01
  1.08969354E+00 -1.35154799E+01  6.92447400E+00  1.29924999E+00  1.79489655E+00
 -1.55618442E+00  1.30836114E+00  1.30836114E+00 -9.53390736E+00  2.12453796E+01
 -1.41423270E+01 -1.41423270E+01 -9.02732742E+00 -1.25733870E-01  1.37396142E+00
  1.37396142E+00  2.96841267E+00  2.14294248E+00 -6.72585093E+00  7.85381130E-01
  3.34925874E+00 -4.88357640E-01  2.92832361E+00  3.42032571E+00 -1.12522703E+01
  1.32111675E+00  1.25679203E+01 -1.66242043E+01  7.59323241E+00  7.59323241E+00
 -1.38926815E+01  1.04158667E+01  1.08969354E+00 -1.35154799E+01  6.92447400E+00
  1.29924999E+00  1.79489655E+00 -1.55618442E+00  1.30836114E+00  1.30836114E+00
 -9.53390736E+00  2.12453796E+01 -1.41423270E+01 -1.41423270E+01 -9.02732742E+00
 -1.25733870E-01  1.37396142E+00  1.37396142E+00  2.96841267E+00  2.14294248E+00
 -6.72585093E+00  7.85381130E-01  3.34925874E+00 -4.88357640E-01  2.92832361E+00
  3.42032571E+00 -1.12522703E+01  1.32111675E+00  1.25679203E+01 -1.66242043E+01
  7.59323241E+00  7.59323241E+00 -1.38926815E+01  1.04158667E+01  1.08969354E+00
 -1.35154799E+01  6.92447400E+00  1.29924999E+00  1.79489655E+00 -1.55618442E+00
  1.30836114E+00  1.30836114E+00 -9.53390736E+00  2.12453796E+01 -1.41423270E+01
 -1.41423270E+01 -9.02732742E+00 -1.25733870E-01  1.37396142E+00  1.37396142E+00
  2.96841267E+00  2.14294248E+00 -6.72585093E+00  7.85381130E-01  3.34925874E+00
 -4.88357640E-01  2.92832361E+00  3.42032571E+00 -1.12522703E+01  1.32111675E+00
  1.25679203E+01 -1.66242043E+01  7.59323241E+00  7.59323241E+00 -1.38926815E+01
  1.04158667E+01  1.08969354E+00 -1.35154799E+01  6.92447400E+00  1.29924999E+00
  1.79489655E+00 -1.55618442E+00  1.30836114E+00  1.30836114E+00 -9.53390736E+00
  2.12453796E+01 -1.41423270E+01 -1.41423270E+01 -9.02732742E+00 -1.25733870E-01
  1.37396142E+00  1.37396142E+00  2.96841267E+00  2.14294248E+00 -6.72585093E+00
  7.85381130E-01  3.34925874E+00 -4.88357640E-01  2.92832361E+00  3.42032571E+00
 -1.12522703E+01  1.32111675E+00  1.25679203E+01 -1.66242043E+01  7.59323241E+00
  7.59323241E+00 -1.38926815E+01  1.04158667E+01  1.08969354E+00 -1.35154799E+01
  6.92447400E+00  1.29924999E+00  1.79489655E+00 -1.55618442E+00  1.30836114E+00
  1.30836114E+00 -9.53390736E+00  2.12453796E+01 -1.41423270E+01 -1.41423270E+01
 -9.02732742E+00 -1.25733870E-01  1.37396142E+00  1.37396142E+00  2.96841267E+00
  2.14294248E+00 -6.72585093E+00  7.85381130E-01  3.34925874E+00 -4.88357640E-01
  2.92832361E+00  3.42032571E+00 -1.12522703E+01  1.32111675E+00  1.25679203E+01
 -1.66242043E+01  7.59323241E+00  7.59323241E+00 -1.38926815E+01  1.04158667E+01
  1.08969354E+00 -1.35154799E+01  6.92447400E+00  1.29924999E+00  1.79489655E+00
 -1.55618442E+00  1.30836114E+00  1.30836114E+00 -9.53390736E+00  2.12453796E+01
 -1.41423270E+01 -1.41423270E+01 -9.02732742E+00 -1.25733870E-01  1.37396142E+00
  1.37396142E+00  2.96841267E+00  2.14294248E+00 -6.72585093E+00  7.85381130E-01
  3.34925874E+00 -4.88357640E-01  2.92832361E+00  3.42032571E+00 -1.12522703E+01
  1.32111675E+00  1.25679203E+01 -1.66242043E+01  7.59323241E+00  7.59323241E+00
 -1.38926815E+01  1.04158667E+01  1.08969354E+00 -1.35154799E+01  6.92447400E+00
  1.29924999E+00  1.79489655E+00 -1.55618442E+00  1.30836114E+00  1.30836114E+00
 -9.53390736E+00  2.12453796E+01 -1.41423270E+01 -1.41423270E+01 -9.02732742E+00
 -1.25733870E-01  1.37396142E+00  1.37396142E+00  2.96841267E+00  2.14294248E+00
 -6.72585093E+00  7.85381130E-01  3.34925874E+00 -4.88357640E-01  2.92832361E+00
  3.42032571E+00 -1.12522703E+01  1.32111675E+00  1.25679203E+01 -1.66242043E+01
  7.59323241E+00  7.59323241E+00 -1.38926815E+01  1.04158667E+01  1.08969354E+00
 -1.35154799E+01  6.92447400E+00  1.29924999E+00  1.79489655E+00 -1.55618442E+00
  1.30836114E+00  1.30836114E+00 -1.19337843E+01  8.01052308E+00  8.05790106E+00
 -1.15128491E+01 -1.25733870E-01  1.37396142E+00  1.37396142E+00  2.96841267E+00
  2.14294248E+00 -6.72585093E+00  1.23911640E+00  3.28730292E+00 -4.35512970E-01
 -4.02530607E+00  4.75055361E+00  4.55557500E-02 -4.13463987E+00  1.40311710E+00
  1.40311710E+00  1.40311710E+00  9.46466262E+00 -1.01370655E+01 -7.90847820E+00
  6.23202660E+00  1.03447997E+01 -1.07165346E+01  1.29924999E+00  1.79489655E+00
 -1.55618442E+00  1.30836114E+00  1.30836114E+00 -9.53390736E+00  2.12453796E+01
 -1.41423270E+01 -1.41423270E+01 -9.02732742E+00 -1.25733870E-01  1.37396142E+00
  1.37396142E+00  2.96841267E+00  2.14294248E+00 -6.72585093E+00  1.23911640E+00
  3.28730292E+00 -4.35512970E-01 -4.02530607E+00  4.75055361E+00  4.55557500E-02
 -4.13463987E+00  1.40311710E+00  1.40311710E+00  1.40311710E+00  9.46466262E+00
 -1.01370655E+01 -7.90847820E+00  6.23202660E+00  1.03447997E+01 -1.07165346E+01
  1.29924999E+00  1.79489655E+00 -1.55618442E+00  1.30836114E+00  1.30836114E+00
 -9.53390736E+00  2.12453796E+01 -1.41423270E+01 -1.41423270E+01 -9.02732742E+00
 -1.25733870E-01  1.37396142E+00  1.37396142E+00  2.96841267E+00  2.14294248E+00
 -6.72585093E+00  1.23911640E+00  3.28730292E+00 -4.35512970E-01 -4.02530607E+00
  4.75055361E+00  4.55557500E-02 -4.13463987E+00  1.40311710E+00  1.40311710E+00
  1.40311710E+00  9.46466262E+00 -1.01370655E+01 -7.90847820E+00  6.23202660E+00
  1.03447997E+01 -1.07165346E+01  1.29924999E+00  1.79489655E+00 -1.55618442E+00
  1.30836114E+00  1.30836114E+00 -9.53390736E+00  2.12453796E+01 -1.41423270E+01
 -1.41423270E+01 -9.02732742E+00 -1.25733870E-01  1.37396142E+00  1.37396142E+00
  2.96841267E+00  2.14294248E+00 -6.72585093E+00  1.23911640E+00  3.28730292E+00
 -4.35512970E-01 -4.02530607E+00  4.75055361E+00  4.55557500E-02 -4.13463987E+00
  1.40311710E+00  1.40311710E+00  1.40311710E+00  9.46466262E+00 -1.01370655E+01
 -7.90847820E+00  6.23202660E+00  1.03447997E+01 -1.07165346E+01  1.29924999E+00
  1.79489655E+00 -1.55618442E+00  1.30836114E+00  1.30836114E+00 -9.53390736E+00
  2.12453796E+01 -1.41423270E+01 -1.41423270E+01 -9.02732742E+00 -1.25733870E-01
  1.37396142E+00  1.37396142E+00  2.96841267E+00  2.14294248E+00 -6.72585093E+00
  1.23911640E+00  3.28730292E+00 -4.35512970E-01 -4.02530607E+00  4.75055361E+00
  4.55557500E-02 -4.13463987E+00  1.40311710E+00  1.40311710E+00  1.40311710E+00
  9.46466262E+00 -1.01370655E+01 -7.90847820E+00  6.23202660E+00  1.03447997E+01
 -1.07165346E+01  1.29924999E+00  1.79489655E+00 -1.55618442E+00  1.30836114E+00
  1.30836114E+00 -9.53390736E+00  2.12453796E+01 -1.41423270E+01 -1.41423270E+01
 -9.02732742E+00 -1.25733870E-01  1.37396142E+00  1.37396142E+00  2.96841267E+00
  2.14294248E+00 -6.72585093E+00  1.23911640E+00  3.28730292E+00 -4.35512970E-01
 -4.02530607E+00  4.75055361E+00  4.55557500E-02 -4.13463987E+00  1.40311710E+00
  1.40311710E+00  1.40311710E+00  9.46466262E+00 -1.01370655E+01 -7.90847820E+00
  6.23202660E+00  1.03447997E+01 -1.07165346E+01  1.29924999E+00  1.79489655E+00
 -1.55618442E+00  1.30836114E+00  1.30836114E+00 -9.53390736E+00  2.12453796E+01
 -1.41423270E+01 -1.41423270E+01 -9.02732742E+00 -1.25733870E-01  1.37396142E+00
  1.37396142E+00  2.96841267E+00  2.14294248E+00 -6.72585093E+00  1.23911640E+00
  3.28730292E+00 -4.35512970E-01 -4.02530607E+00  4.75055361E+00  4.55557500E-02
 -4.13463987E+00  1.40311710E+00  1.40311710E+00  1.40311710E+00  9.46466262E+00
 -1.01370655E+01 -7.90847820E+00  6.23202660E+00  1.03447997E+01 -1.07165346E+01
  1.29924999E+00  1.79489655E+00 -1.55618442E+00  1.30836114E+00  1.30836114E+00
 -9.53390736E+00  2.12453796E+01 -1.41423270E+01 -1.41423270E+01 -9.02732742E+00
 -1.25733870E-01  1.37396142E+00  1.37396142E+00  2.96841267E+00  2.14294248E+00
 -6.72585093E+00  1.23911640E+00  3.28730292E+00 -4.35512970E-01 -4.02530607E+00
  4.75055361E+00  4.55557500E-02 -4.13463987E+00  1.40311710E+00  1.40311710E+00
  1.40311710E+00  9.46466262E+00 -1.01370655E+01 -7.90847820E+00  6.23202660E+00
  1.03447997E+01 -1.07165346E+01  1.29924999E+00  1.79489655E+00 -1.55618442E+00
  1.30836114E+00  1.30836114E+00 -9.53390736E+00  2.12453796E+01 -1.41423270E+01
 -1.41423270E+01 -9.02732742E+00 -1.25733870E-01  1.37396142E+00  1.37396142E+00
  2.96841267E+00  2.14294248E+00 -6.72585093E+00  1.23911640E+00  3.28730292E+00
 -4.35512970E-01 -4.02530607E+00  4.75055361E+00  4.55557500E-02 -4.13463987E+00
  1.40311710E+00  1.40311710E+00  1.40311710E+00  9.46466262E+00 -1.01370655E+01
 -7.90847820E+00  6.23202660E+00  1.03447997E+01 -1.07165346E+01  1.29924999E+00
  1.79489655E+00 -1.55618442E+00  1.30836114E+00  1.30836114E+00 -9.53390736E+00
  2.12453796E+01 -1.41423270E+01 -1.41423270E+01 -9.02732742E+00 -1.25733870E-01
  1.37396142E+00  1.37396142E+00  2.96841267E+00  2.14294248E+00 -6.72585093E+00
  1.23911640E+00  3.28730292E+00 -4.35512970E-01 -4.02530607E+00  4.75055361E+00
  4.55557500E-02 -4.13463987E+00  1.40311710E+00  1.40311710E+00  1.40311710E+00
  9.46466262E+00 -1.01370655E+01 -7.90847820E+00  6.23202660E+00  1.03447997E+01
 -1.07165346E+01  1.29924999E+00  1.79489655E+00 -1.55618442E+00  1.30836114E+00
  1.30836114E+00 -1.19337843E+01  8.01052308E+00  1.82223000E+01  1.82223000E+01
  1.82223000E+01  1.82223000E+01  1.82223000E+01  1.82223000E+01  1.82223000E+01
  1.82223000E+01  1.82223000E+01  1.82223000E+01  1.82223000E+01  1.82223000E+01
  1.82223000E+01  1.82223000E+01  1.82223000E+01  1.82223000E+01  1.82223000E+01
  1.82223000E+01
%FLAG ATOMIC_NUMBER                                                             
%FORMAT(10I8)                                                                   
       1       8       6       1       1       6       1       8       6       1
       7       6       1       7       6       6       7       1       1       7
       6       1       7       6       6       1       6       1       1       8
      15       8       8       8       6       1       1       6       1       8
       6       1       7       6       1       7       6       6       7       1
       1       7       6       1       7       6       6       1       6       1
       1       8      15       8       8       8       6       1       1       6
       1       8       6       1       7       6       1       7       6       6
       7       1       1       7       6       1       7       6       6       1
       6       1       1       8      15       8       8       8       6       1
       1       6       1       8       6       1       7       6       1       7
       6       6       7       1       1       7       6       1       7       6
       6       1       6       1       1       8      15       8       8       8
       6       1       1       6       1       8       6       1       7       6
       1       7       6       6       7       1       1       7       6       1
       7       6       6       1       6       1       1       8      15       8
       8       8       6       1       1       6       1       8       6       1
       7       6       1       7       6       6       7       1       1       7
       6       1       7       6       6       1       6       1       1       8
      15       8       8       8       6       1       1       6       1       8
       6       1       7       6       1       7       6       6       7       1
       1       7       6       1       7       6       6       1       6       1
       1       8      15       8       8       8       6       1       1       6
       1       8       6       1       7       6       1       7       6       6
       7       1       1       7       6       1       7       6       6       1
       6       1       1       8      15       8       8       8       6       1
       1       6       1       8       6       1       7       6       1       7
       6       6       7       1       1       7       6       1       7       6
       6       1       6       1       1       8      15       8       8       8
       6       1       1       6       1       8       6       1       7       6
       1       7       6       6       7       1       1       7       6       1
       7       6       6       1       6       1       1       8       1       1
       8       6       1       1       6       1       8       6       1       7
       6       1       6       6       1       1       1       6       8       7
       1       6       8       6       1       6       1       1       8      15
       8       8       8       6       1       1       6       1       8       6
       1       7       6       1       6       6       1       1       1       6
       8       7       1       6       8       6       1       6       1       1
       8      15       8       8       8       6       1       1       6       1
       8       6       1       7       6       1       6       6       1       1
       1       6       8       7       1       6       8       6       1       6
       1       1       8      15       8       8       8       6       1       1
       6       1       8       6       1       7       6       1       6       6
       1       1       1       6       8       7       1       6       8       6
       1       6       1       1       8      15       8       8       8       6
       1       1       6       1       8       6       1       7       6       1
       6       6       1       1       1       6       8       7       1       6
       8       6       1       6       1       1       8      15       8       8
       8       6       1       1       6       1       8       6       1       7
       6       1       6       6       1       1       1       6       8       7
       1       6       8       6       1       6       1       1       8      15
       8       8       8       6       1       1       6       1       8       6
       1       7       6       1       6       6       1       1       1       6
       8       7       1       6       8       6       1       6       1       1
       8      15       8       8       8       6       1       1       6       1
       8       6       1       7       6       1       6       6       1       1
       1       6       8       7       1       6       8       6       1       6
       1       1       8      15       8       8       8       6       1       1
       6       1       8       6       1       7       6       1       6       6
       1       1       1       6       8       7       1       6       8       6
       1       6       1       1       8      15       8       8       8       6
       1       1       6       1       8       6       1       7       6       1
       6       6       1       1       1       6       8       7       1       6
       8       6       1       6       1       1       8       1      11      11
      11      11      11      11      11      11      11      11      11      11
      11      11      11      11      11      11
%FLAG MASS                                                                      
%FORMAT(5E16.8)                                                                 
  1.00800000E+00  1.60000000E+01  1.20100000E+01  1.00800000E+00  1.00800000E+00
  1.20100000E+01  1.00800000E+00  1.60000000E+01  1.20100000E+01  1.00800000E+00
  1.40100000E+01  1.20100000E+01  1.00800000E+00  1.40100000E+01  1.20100000E+01
  1.20100000E+01  1.40100000E+01  1.00800000E+00  1.00800000E+00  1.40100000E+01
  1.20100000E+01  1.00800000E+00  1.40100000E+01  1.20100000E+01  1.20010000E+01
  1.00800000E+00  1.20100000E+01  1.00800000E+00  1.00800000E+00  1.60000000E+01
  3.09700000E+01  1.60000000E+01  1.60000000E+01  1.60000000E+01  1.20100000E+01
  1.00800000E+00  1.00800000E+00  1.20100000E+01  1.00800000E+00  1.60000000E+01
  1.20100000E+01  1.00800000E+00  1.40100000E+01  1.20100000E+01  1.00800000E+00
  1.40100000E+01  1.20100000E+01  1.20100000E+01  1.40100000E+01  1.00800000E+00
  1.00800000E+00  1.40100000E+01  1.20100000E+01  1.00800000E+00  1.40100000E+01
  1.20100000E+01  1.20010000E+01  1.00800000E+00  1.20100000E+01  1.00800000E+00
  1.00800000E+00  1.60000000E+01  3.09700000E+01  1.60000000E+01  1.60000000E+01
  1.60000000E+01  1.20100000E+01  1.00800000E+00  1.00800000E+00  1.20100000E+01
  1.00800000E+00  1.60000000E+01  1.20100000E+01  1.00800000E+00  1.40100000E+01
  1.20100000E+01  1.00800000E+00  1.40100000E+01  1.20100000E+01  1.20100000E+01
  1.40100000E+01  1.00800000E+00  1.00800000E+00  1.40100000E+01  1.20100000E+01
  1.00800000E+00  1.40100000E+01  1.20100000E+01  1.20010000E+01  1.00800000E+00
  1.20100000E+01  1.00800000E+00  1.00800000E+00  1.60000000E+01  3.09700000E+01
  1.60000000E+01  1.60000000E+01  1.60000000E+01  1.20100000E+01  1.00800000E+00
  1.00800000E+00  1.20100000E+01  1.00800000E+00  1.60000000E+01  1.20100000E+01
  1.00800000E+00  1.40100000E+01  1.20100000E+01  1.00800000E+00  1.40100000E+01
  1.20100000E+01  1.20100000E+01  1.40100000E+01  1.00800000E+00  1.00800000E+00
  1.40100000E+01  1.20100000E+01  1.00800000E+00  1.40100000E+01  1.20100000E+01
  1.20010000E+01  1.00800000E+00  1.20100000E+01  1.00800000E+00  1.00800000E+00
  1.60000000E+01  3.09700000E+01  1.60000000E+01  1.60000000E+01  1.60000000E+01
  1.20100000E+01  1.00800000E+00  1.00800000E+00  1.20100000E+01  1.00800000E+00
  1.60000000E+01  1.20100000E+01  1.00800000E+00  1.40100000E+01  1.20100000E+01
  1.00800000E+00  1.40100000E+01  1.20100000E+01  1.20100000E+01  1.40100000E+01
  1.00800000E+00  1.00800000E+00  1.40100000E+01  1.20100000E+01  1.00800000E+00
  1.40100000E+01  1.20100000E+01  1.20010000E+01  1.00800000E+00  1.20100000E+01
  1.00800000E+00  1.00800000E+00  1.60000000E+01  3.09700000E+01  1.60000000E+01
  1.60000000E+01  1.60000000E+01  1.20100000E+01  1.00800000E+00  1.00800000E+00
  1.20100000E+01  1.00800000E+00  1.60000000E+01  1.20100000E+01  1.00800000E+00
  1.40100000E+01  1.20100000E+01  1.00800000E+00  1.40100000E+01  1.20100000E+01
  1.20100000E+01  1.40100000E+01  1.00800000E+00  1.00800000E+00  1.40100000E+01
  1.20100000E+01  1.00800000E+00  1.40100000E+01  1.20100000E+01  1.20010000E+01
  1.00800000E+00  1.20100000E+01  1.00800000E+00  1.00800000E+00  1.60000000E+01
  3.09700000E+01  1.60000000E+01  1.60000000E+01  1.60000000E+01  1.20100000E+01
  1.00800000E+00  1.00800000E+00  1.20100000E+01  1.00800000E+00  1.60000000E+01
  1.20100000E+01  1.00800000E+00  1.40100000E+01  1.20100000E+01  1.00800000E+00
  1.40100000E+01  1.20100000E+01  1.20100000E+01  1.40100000E+01  1.00800000E+00
  1.00800000E+00  1.40100000E+01  1.20100000E+01  1.00800000E+00  1.40100000E+01
  1.20100000E+01  1.20010000E+01  1.00800000E+00  1.20100000E+01  1.00800000E+00
  1.00800000E+00  1.60000000E+01  3.09700000E+01  1.60000000E+01  1.60000000E+01
  1.60000000E+01  1.20100000E+01  1.00800000E+00  1.00800000E+00  1.20100000E+01
  1.00800000E+00  1.60000000E+01  1.20100000E+01  1.00800000E+00  1.40100000E+01
  1.20100000E+01  1.00800000E+00  1.40100000E+01  1.20100000E+01  1.20100000E+01
  1.40100000E+01  1.00800000E+00  1.00800000E+00  1.40100000E+01  1.20100000E+01
  1.00800000E+00  1.40100000E+01  1.20100000E+01  1.20010000E+01  1.00800000E+00
  1.20100000E+01  1.00800000E+00  1.00800000E+00  1.60000000E+01  3.09700000E+01
  1.60000000E+01  1.60000000E+01  1.60000000E+01  1.20100000E+01  1.00800000E+00
  1.00800000E+00  1.20100000E+01  1.00800000E+00  1.60000000E+01  1.20100000E+01
  1.00800000E+00  1.40100000E+01  1.20100000E+01  1.00800000E+00  1.40100000E+01
  1.20100000E+01  1.20100000E+01  1.40100000E+01  1.00800000E+00  1.00800000E+00
  1.40100000E+01  1.20100000E+01  1.00800000E+00  1.40100000E+01  1.20100000E+01
  1.20010000E+01  1.00800000E+00  1.20100000E+01  1.00800000E+00  1.00800000E+00
  1.60000000E+01  3.09700000E+01  1.60000000E+01  1.60000000E+01  1.60000000E+01
  1.20100000E+01  1.00800000E+00  1.00800000E+00  1.20100000E+01  1.00800000E+00
  1.60000000E+01  1.20100000E+01  1.00800000E+00  1.40100000E+01  1.20100000E+01
  1.00800000E+00  1.40100000E+01  1.20100000E+01  1.20100000E+01  1.40100000E+01
  1.00800000E+00  1.00800000E+00  1.40100000E+01  1.20100000E+01  1.00800000E+00
  1.40100000E+01  1.20100000E+01  1.20010000E+01  1.00800000E+00  1.20100000E+01
  1.00800000E+00  1.00800000E+00  1.60000000E+01  1.00800000E+00  1.00800000E+00
  1.60000000E+01  1.20100000E+01  1.00800000E+00  1.00800000E+00  1.20100000E+01
  1.00800000E+00  1.60000000E+01  1.20100000E+01  1.00800000E+00  1.40100000E+01
  1.20100000E+01  1.00800000E+00  1.20100000E+01  1.20100000E+01  1.00800000E+00
  1.00800000E+00  1.00800000E+00  1.20100000E+01  1.60000000E+01  1.40100000E+01
  1.00800000E+00  1.20100000E+01  1.60000000E+01  1.20010000E+01  1.00800000E+00
  1.20100000E+01  1.00800000E+00  1.00800000E+00  1.60000000E+01  3.09700000E+01
  1.60000000E+01  1.60000000E+01  1.60000000E+01  1.20100000E+01  1.00800000E+00
  1.00800000E+00  1.20100000E+01  1.00800000E+00  1.60000000E+01  1.20100000E+01
  1.00800000E+00  1.40100000E+01  1.20100000E+01  1.00800000E+00  1.20100000E+01
  1.20100000E+01  1.00800000E+00  1.00800000E+00  1.00800000E+00  1.20100000E+01
  1.60000000E+01  1.40100000E+01  1.00800000E+00  1.20100000E+01  1.60000000E+01
  1.20010000E+01  1.00800000E+00  1.20100000E+01  1.00800000E+00  1.00800000E+00
  1.60000000E+01  3.09700000E+01  1.60000000E+01  1.60000000E+01  1.60000000E+01
  1.20100000E+01  1.00800000E+00  1.00800000E+00  1.20100000E+01  1.00800000E+00
  1.60000000E+01  1.20100000E+01  1.00800000E+00  1.40100000E+01  1.20100000E+01
  1.00800000E+00  1.20100000E+01  1.20100000E+01  1.00800000E+00  1.00800000E+00
  1.00800000E+00  1.20100000E+01  1.60000000E+01  1.40100000E+01  1.00800000E+00
  1.20100000E+01  1.60000000E+01  1.20010000E+01  1.00800000E+00  1.20100000E+01
  1.00800000E+00  1.00800000E+00  1.60000000E+01  3.09700000E+01  1.60000000E+01
  1.60000000E+01  1.60000000E+01  1.20100000E+01  1.00800000E+00  1.00800000E+00
  1.20100000E+01  1.00800000E+00  1.60000000E+01  1.20100000E+01  1.00800000E+00
  1.40100000E+01  1.20100000E+01  1.00800000E+00  1.20100000E+01  1.20100000E+01
  1.00800000E+00  1.00800000E+00  1.00800000E+00  1.20100000E+01  1.60000000E+01
  1.40100000E+01  1.00800000E+00  1.20100000E+01  1.60000000E+01  1.20010000E+01
  1.00800000E+00  1.20100000E+01  1.00800000E+00  1.00800000E+00  1.60000000E+01
  3.09700000E+01  1.60000000E+01  1.60000000E+01  1.60000000E+01  1.20100000E+01
  1.00800000E+00  1.00800000E+00  1.20100000E+01  1.00800000E+00  1.60000000E+01
  1.20100000E+01  1.00800000E+00  1.40100000E+01  1.20100000E+01  1.00800000E+00
  1.20100000E+01  1.20100000E+01  1.00800000E+00  1.00800000E+00  1.00800000E+00
  1.20100000E+01  1.60000000E+01  1.40100000E+01  1.00800000E+00  1.20100000E+01
  1.60000000E+01  1.20010000E+01  1.00800000E+00  1.20100000E+01  1.00800000E+00
  1.00800000E+00  1.60000000E+01  3.09700000E+01  1.60000000E+01  1.60000000E+01
  1.60000000E+01  1.20100000E+01  1.00800000E+00  1.00800000E+00  1.20100000E+01
  1.00800000E+00  1.60000000E+01  1.20100000E+01  1.00800000E+00  1.40100000E+01
  1.20100000E+01  1.00800000E+00  1.20100000E+01  1.20100000E+01  1.00800000E+00
  1.00800000E+00  1.00800000E+00  1.20100000E+01  1.60000000E+01  1.40100000E+01
  1.00800000E+00  1.20100000E+01  1.60000000E+01  1.20010000E+01  1.00800000E+00
  1.20100000E+01  1.00800000E+00  1.00800000E+00  1.60000000E+01  3.09700000E+01
  1.60000000E+01  1.60000000E+01  1.60000000E+01  1.20100000E+01  1.00800000E+00
  1.00800000E+00  1.20100000E+01  1.00800000E+00  1.60000000E+01  1.20100000E+01
  1.00800000E+00  1.40100000E+01  1.20100000E+01  1.00800000E+00  1.20100000E+01
  1.20100000E+01  1.00800000E+00  1.00800000E+00  1.00800000E+00  1.20100000E+01
  1.60000000E+01  1.40100000E+01  1.00800000E+00  1.20100000E+01  1.60000000E+01
  1.20010000E+01  1.00800000E+00  1.20100000E+01  1.00800000E+00  1.00800000E+00
  1.60000000E+01  3.09700000E+01  1.60000000E+01  1.60000000E+01  1.60000000E+01
  1.20100000E+01  1.00800000E+00  1.00800000E+00  1.20100000E+01  1.00800000E+00
  1.60000000E+01  1.20100000E+01  1.00800000E+00  1.40100000E+01  1.20100000E+01
  1.00800000E+00  1.20100000E+01  1.20100000E+01  1.00800000E+00  1.00800000E+00
  1.00800000E+00  1.20100000E+01  1.60000000E+01  1.40100000E+01  1.00800000E+00
  1.20100000E+01  1.60000000E+01  1.20010000E+01  1.00800000E+00  1.20100000E+01
  1.00800000E+00  1.00800000E+00  1.60000000E+01  3.09700000E+01  1.60000000E+01
  1.60000000E+01  1.60000000E+01  1.20100000E+01  1.00800000E+00  1.00800000E+00
  1.20100000E+01  1.00800000E+00  1.60000000E+01  1.20100000E+01  1.00800000E+00
  1.40100000E+01  1.20100000E+01  1.00800000E+00  1.20100000E+01  1.20100000E+01
  1.00800000E+00  1.00800000E+00  1.00800000E+00  1.20100000E+01  1.60000000E+01
  1.40100000E+01  1.00800000E+00  1.20100000E+01  1.60000000E+01  1.20010000E+01
  1.00800000E+00  1.20100000E+01  1.00800000E+00  1.00800000E+00  1.60000000E+01
  3.09700000E+01  1.60000000E+01  1.60000000E+01  1.60000000E+01  1.20100000E+01
  1.00800000E+00  1.00800000E+00  1.20100000E+01  1.00800000E+00  1.60000000E+01
  1.20100000E+01  1.00800000E+00  1.40100000E+01  1.20100000E+01  1.00800000E+00
  1.20100000E+01  1.20100000E+01  1.00800000E+00  1.00800000E+00  1.00800000E+00
  1.20100000E+01  1.60000000E+01  1.40100000E+01  1.00800000E+00  1.20100000E+01
  1.60000000E+01  1.20010000E+01  1.00800000E+00  1.20100000E+01  1.00800000E+00
  1.00800000E+00  1.60000000E+01  1.00800000E+00  2.29900000E+01  2.29900000E+01
  2.29900000E+01  2.29900000E+01  2.29900000E+01  2.29900000E+01  2.29900000E+01
  2.29900000E+01  2.29900000E+01  2.29900000E+01  2.29900000E+01  2.29900000E+01
  2.29900000E+01  2.29900000E+01  2.29900000E+01  2.29900000E+01  2.29900000E+01
  2.29900000E+01
%FLAG ATOM_TYPE_INDEX                                                           
%FORMAT(10I8)                                                                   
       1       2       3       4       4       3       4       5       3       6
       7       8       9       7       8       8       7      10      10       7
       8       9       7       8       3       4       3      11      11       5
      12      13      13       5       3       4       4       3       4       5
       3       6       7       8       9       7       8       8       7      10
      10       7       8       9       7       8       3       4       3      11
      11       5      12      13      13       5       3       4       4       3
       4       5       3       6       7       8       9       7       8       8
       7      10      10       7       8       9       7       8       3       4
       3      11      11       5      12      13      13       5       3       4
       4       3       4       5       3       6       7       8       9       7
       8       8       7      10      10       7       8       9       7       8
       3       4       3      11      11       5      12      13      13       5
       3       4       4       3       4       5       3       6       7       8
       9       7       8       8       7      10      10       7       8       9
       7       8       3       4       3      11      11       5      12      13
      13       5       3       4       4       3       4       5       3       6
       7       8       9       7       8       8       7      10      10       7
       8       9       7       8       3       4       3      11      11       5
      12      13      13       5       3       4       4       3       4       5
       3       6       7       8       9       7       8       8       7      10
      10       7       8       9       7       8       3       4       3      11
      11       5      12      13      13       5       3       4       4       3
       4       5       3       6       7       8       9       7       8       8
       7      10      10       7       8       9       7       8       3       4
       3      11      11       5      12      13      13       5       3       4
       4       3       4       5       3       6       7       8       9       7
       8       8       7      10      10       7       8       9       7       8
       3       4       3      11      11       5      12      13      13       5
       3       4       4       3       4       5       3       6       7       8
       9       7       8       8       7      10      10       7       8       9
       7       8       3       4       3      11      11       2       1       1
       2       3       4       4       3       4       5       3       6       7
       8      14       8       3      11      11      11       8      13       7
      10       8      13       3       4       3      11      11       5      12
      13      13       5       3       4       4       3       4       5       3
       6       7       8      14       8       3      11      11      11       8
      13       7      10       8      13       3       4       3      11      11
       5      12      13      13       5       3       4       4       3       4
       5       3       6       7       8      14       8       3      11      11
      11       8      13       7      10       8      13       3       4       3
      11      11       5      12      13      13       5       3       4       4
       3       4       5       3       6       7       8      14       8       3
      11      11      11       8      13       7      10       8      13       3
       4       3      11      11       5      12      13      13       5       3
       4       4       3       4       5       3       6       7       8      14
       8       3      11      11      11       8      13       7      10       8
      13       3       4       3      11      11       5      12      13      13
       5       3       4       4       3       4       5       3       6       7
       8      14       8       3      11      11      11       8      13       7
      10       8      13       3       4       3      11      11       5      12
      13      13       5       3       4       4       3       4       5       3
       6       7       8      14       8       3      11      11      11       8
      13       7      10       8      13       3       4       3      11      11
       5      12      13      13       5       3       4       4       3       4
       5       3       6       7       8      14       8       3      11      11
      11       8      13       7      10       8      13       3       4       3
      11      11       5      12      13      13       5       3       4       4
       3       4       5       3       6       7       8      14       8       3
      11      11      11       8      13       7      10       8      13       3
       4       3      11      11       5      12      13      13       5       3
       4       4       3       4       5       3       6       7       8      14
       8       3      11      11      11       8      13       7      10       8
      13       3       4       3      11      11       2       1      15      15
      15      15      15      15      15      15      15      15      15      15
      15      15      15      15      15      15
%FLAG NUMBER_EXCLUDED_ATOMS                                                     
%FORMAT(10I8)                                                                   
       5       7      10       5       4      12       6      11      14       7
      12       7       3       6       8       8       5       2       1       4
       3       2       1       1       9       5       4       2       1       5
       7       3       2       7      10       5       4      12       6      11
      14       7      12       7       3       6       8       8       5       2
       1       4       3       2       1       1       9       5       4       2
       1       5       7       3       2       7      10       5       4      12
       6      11      14       7      12       7       3       6       8       8
       5       2       1       4       3       2       1       1       9       5
       4       2       1       5       7       3       2       7      10       5
       4      12       6      11      14       7      12       7       3       6
       8       8       5       2       1       4       3       2       1       1
       9       5       4       2       1       5       7       3       2       7
      10       5       4      12       6      11      14       7      12       7
       3       6       8       8       5       2       1       4       3       2
       1       1       9       5       4       2       1       5       7       3
       2       7      10       5       4      12       6      11      14       7
      12       7       3       6       8       8       5       2       1       4
       3       2       1       1       9       5       4       2       1       5
       7       3       2       7      10       5       4      12       6      11
      14       7      12       7       3       6       8       8       5       2
       1       4       3       2       1       1       9       5       4       2
       1       5       7       3       2       7      10       5       4      12
       6      11      14       7      12       7       3       6       8       8
       5       2       1       4       3       2       1       1       9       5
       4       2       1       5       7       3       2       7      10       5
       4      12       6      11      14       7      12       7       3       6
       8       8       5       2       1       4       3       2       1       1
       9       5       4       2       1       5       7       3       2       7
      10       5       4      12       6      11      14       7      12       7
       3       6       8       8       5       2       1       4       3       2
       1       1       6       5       4       2       1       1       1       5
       7      10       5       4      12       6      11      14       7      13
      12       4       9       6       3       2       1       5       3       3
       2       2       1       9       5       4       2       1       5       7
       3       2       7      10       5       4      12       6      11      14
       7      13      12       4       9       6       3       2       1       5
       3       3       2       2       1       9       5       4       2       1
       5       7       3       2       7      10       5       4      12       6
      11      14       7      13      12       4       9       6       3       2
       1       5       3       3       2       2       1       9       5       4
       2       1       5       7       3       2       7      10       5       4
      12       6      11      14       7      13      12       4       9       6
       3       2       1       5       3       3       2       2       1       9
       5       4       2       1       5       7       3       2       7      10
       5       4      12       6      11      14       7      13      12       4
       9       6       3       2       1       5       3       3       2       2
       1       9       5       4       2       1       5       7       3       2
       7      10       5       4      12       6      11      14       7      13
      12       4       9       6       3       2       1       5       3       3
       2       2       1       9       5       4       2       1       5       7
       3       2       7      10       5       4      12       6      11      14
       7      13      12       4       9       6       3       2       1       5
       3       3       2       2       1       9       5       4       2       1
       5       7       3       2       7      10       5       4      12       6
      11      14       7      13      12       4       9       6       3       2
       1       5       3       3       2       2       1       9       5       4
       2       1       5       7       3       2       7      10       5       4
      12       6      11      14       7      13      12       4       9       6
       3       2       1       5       3       3       2       2       1       9
       5       4       2       1       5       7       3       2       7      10
       5       4      12       6      11      14       7      13      12       4
       9       6       3       2       1       5       3       3       2       2
       1       6       5       4       2       1       1       1       1       1
       1       1       1       1       1       1       1       1       1       1
       1       1       1       1       1       1
%FLAG NONBONDED_PARM_INDEX                                                      
%FORMAT(10I8)                                                                   
       1       2       4       7      11      16      22      29      37      46
      56      67      79      92     106       2       3       5       8      12
      17      23      30      38      47      57      68      80      93     107
       4       5       6       9      13      18      24      31      39      48
      58      69      81      94     108       7       8       9      10      14
      19      25      32      40      49      59      70      82      95     109
      11      12      13      14      15      20      26      33      41      50
      60      71      83      96     110      16      17      18      19      20
      21      27      34      42      51      61      72      84      97     111
      22      23      24      25      26      27      28      35      43      52
      62      73      85      98     112      29      30      31      32      33
      34      35      36      44      53      63      74      86      99     113
      37      38      39      40      41      42      43      44      45      54
      64      75      87     100     114      46      47      48      49      50
      51      52      53      54      55      65      76      88     101     115
      56      57      58      59      60      61      62      63      64      65
      66      77      89     102     116      67      68      69      70      71
      72      73      74      75      76      77      78      90     103     117
      79      80      81      82      83      84      85      86      87      88
      89      90      91     104     118      92      93      94      95      96
      97      98      99     100     101     102     103     104     105     119
     106     107     108     109     110     111     112     113     114     115
     116     117     118     119     120
%FLAG RESIDUE_LABEL                                                             
%FORMAT(20a4)                                                                   
DA5 DA  DA  DA  DA  DA  DA  DA  DA  DA3 DT5 DT  DT  DT  DT  DT  DT  DT  DT  DT3 
Na+ Na+ Na+ Na+ Na+ Na+ Na+ Na+ Na+ Na+ Na+ Na+ Na+ Na+ Na+ Na+ Na+ Na+ 
%FLAG RESIDUE_POINTER                                                           
%FORMAT(10I8)                                                                   
       1      31      63      95     127     159     191     223     255     287
     320     350     382     414     446     478     510     542     574     606
     639     640     641     642     643     644     645     646     647     648
     649     650     651     652     653     654     655     656
%FLAG BOND_FORCE_CONSTANT                                                       
%FORMAT(5E16.8)                                                                 
  2.30000000E+02  3.40000000E+02  3.40000000E+02  3.10000000E+02  3.20000000E+02
  4.61000000E+02  3.67000000E+02  5.02000000E+02  4.34000000E+02  4.81000000E+02
  4.83000000E+02  4.69000000E+02  5.20000000E+02  4.14000000E+02  3.67000000E+02
  5.29000000E+02  4.40000000E+02  4.36000000E+02  3.40000000E+02  3.37000000E+02
  3.10000000E+02  3.20000000E+02  3.40000000E+02  3.40000000E+02  3.10000000E+02
  3.20000000E+02  5.53000000E+02  3.20000000E+02  5.25000000E+02  3.20000000E+02
  5.70000000E+02  4.34000000E+02  4.18000000E+02  3.17000000E+02  4.10000000E+02
  3.67000000E+02  5.49000000E+02  4.48000000E+02  4.24000000E+02
%FLAG BOND_EQUIL_VALUE                                                          
%FORMAT(5E16.8)                                                                 
  1.61000000E+00  1.09000000E+00  1.09000000E+00  1.52600000E+00  1.41000000E+00
  1.35400000E+00  1.08000000E+00  1.32400000E+00  1.01000000E+00  1.34000000E+00
  1.33900000E+00  1.40400000E+00  1.37000000E+00  1.39100000E+00  1.08000000E+00
  1.30400000E+00  1.37100000E+00  1.37400000E+00  1.09000000E+00  1.47500000E+00
  1.52600000E+00  1.41000000E+00  1.09000000E+00  1.09000000E+00  1.52600000E+00
  1.41000000E+00  9.60000000E-01  1.41000000E+00  1.48000000E+00  1.41000000E+00
  1.22900000E+00  1.01000000E+00  1.38800000E+00  1.51000000E+00  1.44400000E+00
  1.08000000E+00  1.35000000E+00  1.36500000E+00  1.38300000E+00
%FLAG ANGLE_FORCE_CONSTANT                                                      
%FORMAT(5E16.8)                                                                 
  1.00000000E+02  4.50000000E+01  3.50000000E+01  5.00000000E+01  5.00000000E+01
  5.00000000E+01  5.00000000E+01  1.00000000E+02  5.00000000E+01  7.00000000E+01
  7.00000000E+01  3.50000000E+01  7.00000000E+01  6.30000000E+01  5.00000000E+01
  7.00000000E+01  7.00000000E+01  7.00000000E+01  7.00000000E+01  7.00000000E+01
  7.00000000E+01  5.00000000E+01  7.00000000E+01  7.00000000E+01  5.00000000E+01
  5.00000000E+01  7.00000000E+01  7.00000000E+01  7.00000000E+01  5.00000000E+01
  5.00000000E+01  7.00000000E+01  7.00000000E+01  4.00000000E+01  5.00000000E+01
  5.00000000E+01  5.00000000E+01  5.00000000E+01  5.00000000E+01  5.00000000E+01
  5.00000000E+01  6.00000000E+01  4.00000000E+01  5.00000000E+01  3.50000000E+01
  5.00000000E+01  5.00000000E+01  4.00000000E+01  5.00000000E+01  5.00000000E+01
  5.50000000E+01  5.00000000E+01  5.00000000E+01  1.40000000E+02  1.00000000E+02
  5.00000000E+01  5.00000000E+01  5.50000000E+01  5.00000000E+01  8.00000000E+01
  7.00000000E+01  7.00000000E+01  5.00000000E+01  8.00000000E+01  7.00000000E+01
  5.00000000E+01  7.00000000E+01  7.00000000E+01  6.30000000E+01  5.00000000E+01
  7.00000000E+01  7.00000000E+01  8.00000000E+01  7.00000000E+01  7.00000000E+01
%FLAG ANGLE_EQUIL_VALUE                                                         
%FORMAT(5E16.8)                                                                 
  1.88897066E+00  1.79070858E+00  1.91113635E+00  1.91113635E+00  1.91113635E+00
  1.91113635E+00  1.91113635E+00  2.10312265E+00  2.01498349E+00  1.93731630E+00
  2.25322103E+00  2.09439600E+00  2.08217869E+00  2.04727209E+00  2.09439600E+00
  2.06996138E+00  2.15548255E+00  2.04727209E+00  2.22878641E+00  2.31081692E+00
  1.92684432E+00  2.14762857E+00  1.83957782E+00  1.81165254E+00  1.91113635E+00
  2.14762857E+00  1.98793087E+00  1.85354046E+00  2.20260646E+00  1.91113635E+00
  1.91113635E+00  2.24798504E+00  2.19562514E+00  1.91113635E+00  1.91113635E+00
  1.91113635E+00  1.91113635E+00  1.91113635E+00  1.91113635E+00  1.91113635E+00
  1.91113635E+00  1.91113635E+00  1.91113635E+00  1.91113635E+00  1.91113635E+00
  1.91113635E+00  1.91113635E+00  1.91113635E+00  1.91113635E+00  1.91113635E+00
  1.89368305E+00  1.91113635E+00  1.91113635E+00  2.09265067E+00  2.10312265E+00
  1.91113635E+00  1.91113635E+00  1.89368305E+00  2.03854544E+00  2.10486798E+00
  2.20609712E+00  2.08916001E+00  1.91113635E+00  2.18689849E+00  1.99142153E+00
  2.08916001E+00  2.12232128E+00  2.08916001E+00  2.10661331E+00  2.07868803E+00
  2.11533996E+00  2.01411082E+00  2.11010397E+00  2.11533996E+00  2.05250808E+00
%FLAG DIHEDRAL_FORCE_CONSTANT                                                   
%FORMAT(5E16.8)                                                                 
  1.85181000E-01  1.25653100E+00  3.54858000E-01  1.55555556E-01  1.07993300E+00
  3.19017000E-01  5.48360000E-02  3.83333333E-01  2.50000000E-01  3.21859000E-01
  5.44600000E-01  7.97144000E-01  0.00000000E+00  6.80000000E+00  3.50000000E+00
  2.40000000E+00  4.80000000E+00  5.45000000E+00  4.15000000E+00  1.70000000E+00
  1.00000000E+01  1.65000000E+00  2.55000000E+00  1.00000000E-01  3.83300000E-01
  1.20000000E+00  1.17500000E+00  1.44000000E-01  9.10000000E-01  1.91000000E+00
  4.10000000E-01  2.50000000E-01  0.00000000E+00  6.50000000E-01  3.83000000E-01
  1.20000000E+00  9.00000000E-01  1.60000000E-01  1.17804000E+00  9.21020000E-02
  9.62830000E-01  1.66666667E-01  1.35000000E+00  2.17500000E+00  1.85000000E+00
  6.65000000E+00  1.45000000E+00  1.15000000E+00  3.80000000E-01  3.00000000E-01
  9.90000000E-01  1.67000000E+00  1.70000000E-01  1.10000000E+00  1.00000000E+00
  1.05000000E+01
%FLAG DIHEDRAL_PERIODICITY                                                      
%FORMAT(5E16.8)                                                                 
  1.00000000E+00  2.00000000E+00  3.00000000E+00  3.00000000E+00  1.00000000E+00
  2.00000000E+00  3.00000000E+00  3.00000000E+00  3.00000000E+00  1.00000000E+00
  2.00000000E+00  3.00000000E+00  2.00000000E+00  2.00000000E+00  2.00000000E+00
  2.00000000E+00  2.00000000E+00  2.00000000E+00  2.00000000E+00  2.00000000E+00
  2.00000000E+00  2.00000000E+00  2.00000000E+00  2.00000000E+00  3.00000000E+00
  1.00000000E+00  2.00000000E+00  3.00000000E+00  1.00000000E+00  2.00000000E+00
  3.00000000E+00  1.00000000E+00  3.00000000E+00  2.00000000E+00  3.00000000E+00
  1.00000000E+00  3.00000000E+00  3.00000000E+00  1.00000000E+00  2.00000000E+00
  3.00000000E+00  3.00000000E+00  2.00000000E+00  2.00000000E+00  2.00000000E+00
  2.00000000E+00  2.00000000E+00  1.00000000E+00  3.00000000E+00  3.00000000E+00
  1.00000000E+00  2.00000000E+00  3.00000000E+00  2.00000000E+00  2.00000000E+00
  2.00000000E+00
%FLAG DIHEDRAL_PHASE                                                            
%FORMAT(5E16.8)                                                                 
  5.54929070E-01  6.14285649E+00  6.23514744E+00  0.00000000E+00  5.19698240E+00
  3.50131437E+00  2.64638419E+00  0.00000000E+00  0.00000000E+00  1.15045137E+00
  9.53800156E-02  5.15662653E+00  0.00000000E+00  3.14159400E+00  3.14159400E+00
  3.14159400E+00  3.14159400E+00  3.14159400E+00  3.14159400E+00  3.14159400E+00
  3.14159400E+00  3.14159400E+00  3.14159400E+00  3.14159400E+00  0.00000000E+00
  5.62711845E+00  0.00000000E+00  0.00000000E+00  2.09614133E+00  1.22173100E-02
  3.93397382E+00  0.00000000E+00  0.00000000E+00  0.00000000E+00  0.00000000E+00
  6.71079385E-01 -3.89208590E-02  0.00000000E+00  3.33317067E+00  5.15976777E+00
  6.07541257E+00  0.00000000E+00  3.14159400E+00  3.14159400E+00  3.14159400E+00
  3.14159400E+00  3.14159400E+00  0.00000000E+00  3.14159400E+00  0.00000000E+00
  3.28122040E+00  8.20305100E-02  3.68090097E+00  3.14159400E+00  3.14159400E+00
  3.14159400E+00
%FLAG SCEE_SCALE_FACTOR                                                         
%FORMAT(5E16.8)                                                                 
  1.20000000E+00  1.20000000E+00  1.20000000E+00  1.20000000E+00  1.20000000E+00
  1.20000000E+00  1.20000000E+00  1.20000000E+00  1.20000000E+00  1.20000000E+00
  1.20000000E+00  1.20000000E+00  1.20000000E+00  1.20000000E+00  1.20000000E+00
  1.20000000E+00  1.20000000E+00  1.20000000E+00  1.20000000E+00  1.20000000E+00
  1.20000000E+00  1.20000000E+00  1.20000000E+00  1.20000000E+00  1.20000000E+00
  1.20000000E+00  1.20000000E+00  1.20000000E+00  1.20000000E+00  1.20000000E+00
  1.20000000E+00  1.20000000E+00  1.20000000E+00  1.20000000E+00  1.20000000E+00
  1.20000000E+00  1.20000000E+00  1.20000000E+00  1.20000000E+00  1.20000000E+00
  1.20000000E+00  1.20000000E+00  1.20000000E+00  1.20000000E+00  1.20000000E+00
  1.20000000E+00  1.20000000E+00  1.20000000E+00  1.20000000E+00  1.20000000E+00
  1.20000000E+00  1.20000000E+00  1.20000000E+00  0.00000000E+00  0.00000000E+00
  0.00000000E+00
%FLAG SCNB_SCALE_FACTOR                                                         
%FORMAT(5E16.8)                                                                 
  2.00000000E+00  2.00000000E+00  2.00000000E+00  2.00000000E+00  2.00000000E+00
  2.00000000E+00  2.00000000E+00  2.00000000E+00  2.00000000E+00  2.00000000E+00
  2.00000000E+00  2.00000000E+00  2.00000000E+00  2.00000000E+00  2.00000000E+00
  2.00000000E+00  2.00000000E+00  2.00000000E+00  2.00000000E+00  2.00000000E+00
  2.00000000E+00  2.00000000E+00  2.00000000E+00  2.00000000E+00  2.00000000E+00
  2.00000000E+00  2.00000000E+00  2.00000000E+00  2.00000000E+00  2.00000000E+00
  2.00000000E+00  2.00000000E+00  2.00000000E+00  2.00000000E+00  2.00000000E+00
  2.00000000E+00  2.00000000E+00  2.00000000E+00  2.00000000E+00  2.00000000E+00
  2.00000000E+00  2.00000000E+00  2.00000000E+00  2.00000000E+00  2.00000000E+00
  2.00000000E+00  2.00000000E+00  2.00000000E+00  2.00000000E+00  2.00000000E+00
  2.00000000E+00  2.00000000E+00  2.00000000E+00  0.00000000E+00  0.00000000E+00
  0.00000000E+00
%FLAG SOLTY                                                                     
%FORMAT(5E16.8)                                                                 
  0.00000000E+00  0.00000000E+00  0.00000000E+00  0.00000000E+00  0.00000000E+00
  0.00000000E+00  0.00000000E+00  0.00000000E+00  0.00000000E+00  0.00000000E+00
  0.00000000E+00  0.00000000E+00  0.00000000E+00  0.00000000E+00  0.00000000E+00
  0.00000000E+00  0.00000000E+00  0.00000000E+00  0.00000000E+00  0.00000000E+00
  0.00000000E+00  0.00000000E+00  0.00000000E+00  0.00000000E+00  0.00000000E+00
  0.00000000E+00  0.00000000E+00
%FLAG LENNARD_JONES_ACOEF                                                       
%FORMAT(5E16.8)                                                                 
  0.00000000E+00  0.00000000E+00  5.81803229E+05  0.00000000E+00  7.91544157E+05
  1.04308023E+06  0.00000000E+00  4.66922514E+04  6.78771368E+04  3.25969625E+03
  0.00000000E+00  4.58874091E+05  6.28541240E+05  3.63097246E+04  3.61397723E+05
  0.00000000E+00  3.15360051E+04  4.68930885E+04  2.09814978E+03  2.44050579E+04
  1.32801250E+03  0.00000000E+00  7.44975864E+05  9.95480466E+05  6.20665997E+04
  5.89818288E+05  4.24594555E+04  9.44293233E+05  0.00000000E+00  7.01803794E+05
  9.24822270E+05  6.01816484E+04  5.57281136E+05  4.15766412E+04  8.82619071E+05
  8.19971662E+05  0.00000000E+00  4.09427581E+04  5.98885646E+04  2.82099197E+03
  3.17965283E+04  1.80748014E+03  5.46147253E+04  5.30987710E+04  2.43828624E+03
  0.00000000E+00  1.40467023E+03  2.56678134E+03  5.94667300E+01  1.03954408E+03
  3.20009193E+01  2.12601181E+03  2.27577561E+03  4.90239937E+01  1.39982777E-01
  0.00000000E+00  6.82786631E+04  9.71708117E+04  4.98586848E+03  5.33379252E+04
  3.25969625E+03  8.96776989E+04  8.61541883E+04  4.33325458E+03  1.07193646E+02
  7.51607703E+03  0.00000000E+00  1.98683736E+06  2.54188684E+06  1.81087383E+05
  1.58759528E+06  1.27716552E+05  2.45746558E+06  2.25370349E+06  1.60682053E+05
  8.41065839E+03  2.54238516E+05  6.02589390E+06  0.00000000E+00  4.71003287E+05
  6.47841731E+05  3.69471530E+04  3.70622491E+05  2.47595516E+04  6.06829342E+05
  5.74393458E+05  3.23283631E+04  1.02595236E+03  5.44261042E+04  1.64263766E+06
  3.79876399E+05  0.00000000E+00  4.96707306E+04  7.18621074E+04  3.50301067E+03
  3.86654993E+04  2.26273716E+03  6.58473870E+04  6.37148278E+04  3.03448006E+03
  6.63368273E+01  5.34045360E+03  1.90880272E+05  3.93690817E+04  3.76169105E+03
  0.00000000E+00  1.02772745E+05  1.49995867E+05  7.11465296E+03  7.98522793E+04
  4.56604314E+03  1.36919347E+05  1.32990267E+05  6.15221292E+03  1.25820601E+02
  1.09119307E+04  4.01624254E+05  8.12116828E+04  7.65043029E+03  1.55205818E+04
%FLAG LENNARD_JONES_BCOEF                                                       
%FORMAT(5E16.8)                                                                 
  0.00000000E+00  0.00000000E+00  6.99746810E+02  0.00000000E+00  6.93079947E+02
  6.75612247E+02  0.00000000E+00  1.03606917E+02  1.06076943E+02  1.43076527E+01
  0.00000000E+00  5.89183300E+02  5.85549272E+02  8.66220817E+01  4.95732238E+02
  0.00000000E+00  8.51470647E+01  8.81685417E+01  1.14788417E+01  7.10161395E+01
  9.13231543E+00  0.00000000E+00  7.50714425E+02  7.36907417E+02  1.13252061E+02
  6.33305958E+02  9.36708259E+01  8.01323529E+02  0.00000000E+00  6.14502845E+02
  5.99015525E+02  9.40505980E+01  5.19163331E+02  7.81725398E+01  6.53361429E+02
  5.31102864E+02  0.00000000E+00  9.59185913E+01  9.85097219E+01  1.31591746E+01
  8.01410250E+01  1.05333009E+01  1.05031585E+02  8.73413012E+01  1.20953369E+01
  0.00000000E+00  1.79702257E+01  2.06278363E+01  1.93248820E+00  1.46567808E+01
  1.41762397E+00  2.09604198E+01  1.82891803E+01  1.73473071E+00  9.37598976E-02
  0.00000000E+00  1.25287818E+02  1.26919150E+02  1.76949863E+01  1.04986921E+02
  1.43076527E+01  1.36131731E+02  1.12529845E+02  1.63092814E+01  2.59456373E+00
  2.17257828E+01  0.00000000E+00  1.27682121E+03  1.22636552E+03  2.01468199E+02
  1.08210555E+03  1.69194406E+02  1.34630496E+03  1.08732781E+03  1.87626421E+02
  4.34187588E+01  2.38716853E+02  2.19561270E+03  0.00000000E+00  6.29300710E+02
  6.26720080E+02  9.21192136E+01  5.29252520E+02  7.54103785E+01  6.77220874E+02
  5.55666448E+02  8.51921330E+01  1.53505284E+01  1.11805549E+02  1.16041466E+03
  5.64885984E+02  0.00000000E+00  1.05648788E+02  1.07908863E+02  1.46638650E+01
  8.83744760E+01  1.17854122E+01  1.15327881E+02  9.56748258E+01  1.34932874E+01
  2.01792524E+00  1.81057616E+01  2.04498832E+02  9.40124296E+01  1.50233639E+01
  0.00000000E+00  2.36133213E+02  2.42242668E+02  3.24719551E+01  1.97338832E+02
  2.60136673E+01  2.58405233E+02  2.14778698E+02  2.98534933E+01  4.31824675E+00
  4.02144725E+01  4.60918488E+02  2.09807371E+02  3.32906603E+01  7.36779156E+01
%FLAG BONDS_INC_HYDROGEN                                                        
%FORMAT(10I8)                                                                   
      78      81       2      78      84       2      72      75       3      60
      63       7      48      51       9      48      54       9      33      36
      15      24      27      19      15      18      23       6       9      24
       6      12      24       0       3      27     174     177       2     174
     180       2     168     171       3     156     159       7     144     147
       9     144     150       9     129     132      15     120     123      19
     111     114      23     102     105      24     102     108      24     270
     273       2     270     276       2     264     267       3     252     255
       7     240     243       9     240     246       9     225     228      15
     216     219      19     207     210      23     198     201      24     198
     204      24     366     369       2     366     372       2     360     363
       3     348     351       7     336     339       9     336     342       9
     321     324      15     312     315      19     303     306      23     294
     297      24     294     300      24     462     465       2     462     468
       2     456     459       3     444     447       7     432     435       9
     432     438       9     417     420      15     408     411      19     399
     402      23     390     393      24     390     396      24     558     561
       2     558     564       2     552     555       3     540     543       7
     528     531       9     528     534       9     513     516      15     504
     507      19     495     498      23     486     489      24     486     492
      24     654     657       2     654     660       2     648     651       3
     636     639       7     624     627       9     624     630       9     609
     612      15     600     603      19     591     594      23     582     585
      24     582     588      24     750     753       2     750     756       2
     744     747       3     732     735       7     720     723       9     720
     726       9     705     708      15     696     699      19     687     690
      23     678     681      24     678     684      24     846     849       2
     846     852       2     840     843       3     828     831       7     816
     819       9     816     822       9     801     804      15     792     795
      19     783     786      23     774     777      24     774     780      24
     951     954      27     942     945       2     942     948       2     936
     939       3     924     927       7     912     915       9     912     918
       9     897     900      15     888     891      19     879     882      23
     870     873      24     870     876      24    1035    1038       2    1035
    1041       2    1029    1032       3    1017    1020      32     999    1002
       2     999    1005       2     999    1008       2     990     993      36
     981     984      19     972     975      23     963     966      24     963
     969      24     957     960      27    1131    1134       2    1131    1137
       2    1125    1128       3    1113    1116      32    1095    1098       2
    1095    1101       2    1095    1104       2    1086    1089      36    1077
    1080      19    1068    1071      23    1059    1062      24    1059    1065
      24    1227    1230       2    1227    1233       2    1221    1224       3
    1209    1212      32    1191    1194       2    1191    1197       2    1191
    1200       2    1182    1185      36    1173    1176      19    1164    1167
      23    1155    1158      24    1155    1161      24    1323    1326       2
    1323    1329       2    1317    1320       3    1305    1308      32    1287
    1290       2    1287    1293       2    1287    1296       2    1278    1281
      36    1269    1272      19    1260    1263      23    1251    1254      24
    1251    1257      24    1419    1422       2    1419    1425       2    1413
    1416       3    1401    1404      32    1383    1386       2    1383    1389
       2    1383    1392       2    1374    1377      36    1365    1368      19
    1356    1359      23    1347    1350      24    1347    1353      24    1515
    1518       2    1515    1521       2    1509    1512       3    1497    1500
      32    1479    1482       2    1479    1485       2    1479    1488       2
    1470    1473      36    1461    1464      19    1452    1455      23    1443
    1446      24    1443    1449      24    1611    1614       2    1611    1617
       2    1605    1608       3    1593    1596      32    1575    1578       2
    1575    1581       2    1575    1584       2    1566    1569      36    1557
    1560      19    1548    1551      23    1539    1542      24    1539    1545
      24    1707    1710       2    1707    1713       2    1701    1704       3
    1689    1692      32    1671    1674       2    1671    1677       2    1671
    1680       2    1662    1665      36    1653    1656      19    1644    1647
      23    1635    1638      24    1635    1641      24    1803    1806       2
    1803    1809       2    1797    1800       3    1785    1788      32    1767
    1770       2    1767    1773       2    1767    1776       2    1758    1761
      36    1749    1752      19    1740    1743      23    1731    1734      24
    1731    1737      24    1908    1911      27    1899    1902       2    1899
    1905       2    1893    1896       3    1881    1884      32    1863    1866
       2    1863    1869       2    1863    1872       2    1854    1857      36
    1845    1848      19    1836    1839      23    1827    1830      24    1827
    1833      24
%FLAG BONDS_WITHOUT_HYDROGEN                                                    
%FORMAT(10I8)                                                                   
      87      90       1      72      78       4      72      87       5      66
      69       6      60      66       8      57      60       8      45      48
      10      45      57      11      42      45      12      42      69      13
      39      42      14      33      39      16      30      33      17      30
      69      18      24      30      20      24      78      21      21      24
      22      15      21      22      15      72       4       6      15      25
       3       6      26     183     186       1     168     174       4     168
     183       5     162     165       6     156     162       8     153     156
       8     141     144      10     141     153      11     138     141      12
     138     165      13     135     138      14     129     135      16     126
     129      17     126     165      18     120     126      20     120     174
      21     117     120      22     111     117      22     111     168       4
     102     111      25      99     102      28      90      93      29      90
      96      29      90      99       1     279     282       1     264     270
       4     264     279       5     258     261       6     252     258       8
     249     252       8     237     240      10     237     249      11     234
     237      12     234     261      13     231     234      14     225     231
      16     222     225      17     222     261      18     216     222      20
     216     270      21     213     216      22     207     213      22     207
     264       4     198     207      25     195     198      28     186     189
      29     186     192      29     186     195       1     375     378       1
     360     366       4     360     375       5     354     357       6     348
     354       8     345     348       8     333     336      10     333     345
      11     330     333      12     330     357      13     327     330      14
     321     327      16     318     321      17     318     357      18     312
     318      20     312     366      21     309     312      22     303     309
      22     303     360       4     294     303      25     291     294      28
     282     285      29     282     288      29     282     291       1     471
     474       1     456     462       4     456     471       5     450     453
       6     444     450       8     441     444       8     429     432      10
     429     441      11     426     429      12     426     453      13     423
     426      14     417     423      16     414     417      17     414     453
      18     408     414      20     408     462      21     405     408      22
     399     405      22     399     456       4     390     399      25     387
     390      28     378     381      29     378     384      29     378     387
       1     567     570       1     552     558       4     552     567       5
     546     549       6     540     546       8     537     540       8     525
     528      10     525     537      11     522     525      12     522     549
      13     519     522      14     513     519      16     510     513      17
     510     549      18     504     510      20     504     558      21     501
     504      22     495     501      22     495     552       4     486     495
      25     483     486      28     474     477      29     474     480      29
     474     483       1     663     666       1     648     654       4     648
     663       5     642     645       6     636     642       8     633     636
       8     621     624      10     621     633      11     618     621      12
     618     645      13     615     618      14     609     615      16     606
     609      17     606     645      18     600     606      20     600     654
      21     597     600      22     591     597      22     591     648       4
     582     591      25     579     582      28     570     573      29     570
     576      29     570     579       1     759     762       1     744     750
       4     744     759       5     738     741       6     732     738       8
     729     732       8     717     720      10     717     729      11     714
     717      12     714     741      13     711     714      14     705     711
      16     702     705      17     702     741      18     696     702      20
     696     750      21     693     696      22     687     693      22     687
     744       4     678     687      25     675     678      28     666     669
      29     666     672      29     666     675       1     855     858       1
     840     846       4     840     855       5     834     837       6     828
     834       8     825     828       8     813     816      10     813     825
      11     810     813      12     810     837      13     807     810      14
     801     807      16     798     801      17     798     837      18     792
     798      20     792     846      21     789     792      22     783     789
      22     783     840       4     774     783      25     771     774      28
     762     765      29     762     768      29     762     771       1     936
     942       4     936     951      30     930     933       6     924     930
       8     921     924       8     909     912      10     909     921      11
     906     909      12     906     933      13     903     906      14     897
     903      16     894     897      17     894     933      18     888     894
      20     888     942      21     885     888      22     879     885      22
     879     936       4     870     879      25     867     870      28     858
     861      29     858     864      29     858     867       1    1044    1047
       1    1029    1035       4    1029    1044       5    1023    1026      31
    1017    1023      33    1011    1014      31    1011    1017      33     996
     999      34     996    1011      35     990     996      37     987     990
      38     987    1023      39     981     987      20     981    1035      21
     978     981      22     972     978      22     972    1029       4     963
     972      25     960     963      26    1140    1143       1    1125    1131
       4    1125    1140       5    1119    1122      31    1113    1119      33
    1107    1110      31    1107    1113      33    1092    1095      34    1092
    1107      35    1086    1092      37    1083    1086      38    1083    1119
      39    1077    1083      20    1077    1131      21    1074    1077      22
    1068    1074      22    1068    1125       4    1059    1068      25    1056
    1059      28    1047    1050      29    1047    1053      29    1047    1056
       1    1236    1239       1    1221    1227       4    1221    1236       5
    1215    1218      31    1209    1215      33    1203    1206      31    1203
    1209      33    1188    1191      34    1188    1203      35    1182    1188
      37    1179    1182      38    1179    1215      39    1173    1179      20
    1173    1227      21    1170    1173      22    1164    1170      22    1164
    1221       4    1155    1164      25    1152    1155      28    1143    1146
      29    1143    1149      29    1143    1152       1    1332    1335       1
    1317    1323       4    1317    1332       5    1311    1314      31    1305
    1311      33    1299    1302      31    1299    1305      33    1284    1287
      34    1284    1299      35    1278    1284      37    1275    1278      38
    1275    1311      39    1269    1275      20    1269    1323      21    1266
    1269      22    1260    1266      22    1260    1317       4    1251    1260
      25    1248    1251      28    1239    1242      29    1239    1245      29
    1239    1248       1    1428    1431       1    1413    1419       4    1413
    1428       5    1407    1410      31    1401    1407      33    1395    1398
      31    1395    1401      33    1380    1383      34    1380    1395      35
    1374    1380      37    1371    1374      38    1371    1407      39    1365
    1371      20    1365    1419      21    1362    1365      22    1356    1362
      22    1356    1413       4    1347    1356      25    1344    1347      28
    1335    1338      29    1335    1341      29    1335    1344       1    1524
    1527       1    1509    1515       4    1509    1524       5    1503    1506
      31    1497    1503      33    1491    1494      31    1491    1497      33
    1476    1479      34    1476    1491      35    1470    1476      37    1467
    1470      38    1467    1503      39    1461    1467      20    1461    1515
      21    1458    1461      22    1452    1458      22    1452    1509       4
    1443    1452      25    1440    1443      28    1431    1434      29    1431
    1437      29    1431    1440       1    1620    1623       1    1605    1611
       4    1605    1620       5    1599    1602      31    1593    1599      33
    1587    1590      31    1587    1593      33    1572    1575      34    1572
    1587      35    1566    1572      37    1563    1566      38    1563    1599
      39    1557    1563      20    1557    1611      21    1554    1557      22
    1548    1554      22    1548    1605       4    1539    1548      25    1536
    1539      28    1527    1530      29    1527    1533      29    1527    1536
       1    1716    1719       1    1701    1707       4    1701    1716       5
    1695    1698      31    1689    1695      33    1683    1686      31    1683
    1689      33    1668    1671      34    1668    1683      35    1662    1668
      37    1659    1662      38    1659    1695      39    1653    1659      20
    1653    1707      21    1650    1653      22    1644    1650      22    1644
    1701       4    1635    1644      25    1632    1635      28    1623    1626
      29    1623    1629      29    1623    1632       1    1812    1815       1
    1797    1803       4    1797    1812       5    1791    1794      31    1785
    1791      33    1779    1782      31    1779    1785      33    1764    1767
      34    1764    1779      35    1758    1764      37    1755    1758      38
    1755    1791      39    1749    1755      20    1749    1803      21    1746
    1749      22    1740    1746      22    1740    1797       4    1731    1740
      25    1728    1731      28    1719    1722      29    1719    1725      29
    1719    1728       1    1893    1899       4    1893    1908      30    1887
    1890      31    1881    1887      33    1875    1878      31    1875    1881
      33    1860    1863      34    1860    1875      35    1854    1860      37
    1851    1854      38    1851    1887      39    1845    1851      20    1845
    1899      21    1842    1845      22    1836    1842      22    1836    1893
       4    1827    1836      25    1824    1827      28    1815    1818      29
    1815    1821      29    1815    1824       1
%FLAG ANGLES_INC_HYDROGEN                                                       
%FORMAT(10I8)                                                                   
      81      78      84       3      75      72      78       5      75      72
      87       6      72      78      81       7      72      78      84       7
      63      60      66       9      57      60      63       9      51      48
      54      12      45      48      51      15      45      48      54      15
      36      33      39      22      30      33      36      26      27      24
      30      30      27      24      78      31      24      78      81      35
      24      78      84      35      21      24      27      37      18      15
      21      40      18      15      72      41      15      72      75       5
      12       6      15      44       9       6      12      45       9       6
      15      44       6      15      18      46       3       6       9      49
       3       6      12      49       0       3       6      51     177     174
     180       3     171     168     174       5     171     168     183       6
     168     174     177       7     168     174     180       7     159     156
     162       9     153     156     159       9     147     144     150      12
     141     144     147      15     141     144     150      15     132     129
     135      22     126     129     132      26     123     120     126      30
     123     120     174      31     120     174     177      35     120     174
     180      35     117     120     123      37     114     111     117      40
     114     111     168      41     111     168     171       5     108     102
     111      44     105     102     108      45     105     102     111      44
     102     111     114      46      99     102     105      52      99     102
     108      52     273     270     276       3     267     264     270       5
     267     264     279       6     264     270     273       7     264     270
     276       7     255     252     258       9     249     252     255       9
     243     240     246      12     237     240     243      15     237     240
     246      15     228     225     231      22     222     225     228      26
     219     216     222      30     219     216     270      31     216     270
     273      35     216     270     276      35     213     216     219      37
     210     207     213      40     210     207     264      41     207     264
     267       5     204     198     207      44     201     198     204      45
     201     198     207      44     198     207     210      46     195     198
     201      52     195     198     204      52     369     366     372       3
     363     360     366       5     363     360     375       6     360     366
     369       7     360     366     372       7     351     348     354       9
     345     348     351       9     339     336     342      12     333     336
     339      15     333     336     342      15     324     321     327      22
     318     321     324      26     315     312     318      30     315     312
     366      31     312     366     369      35     312     366     372      35
     309     312     315      37     306     303     309      40     306     303
     360      41     303     360     363       5     300     294     303      44
     297     294     300      45     297     294     303      44     294     303
     306      46     291     294     297      52     291     294     300      52
     465     462     468       3     459     456     462       5     459     456
     471       6     456     462     465       7     456     462     468       7
     447     444     450       9     441     444     447       9     435     432
     438      12     429     432     435      15     429     432     438      15
     420     417     423      22     414     417     420      26     411     408
     414      30     411     408     462      31     408     462     465      35
     408     462     468      35     405     408     411      37     402     399
     405      40     402     399     456      41     399     456     459       5
     396     390     399      44     393     390     396      45     393     390
     399      44     390     399     402      46     387     390     393      52
     387     390     396      52     561     558     564       3     555     552
     558       5     555     552     567       6     552     558     561       7
     552     558     564       7     543     540     546       9     537     540
     543       9     531     528     534      12     525     528     531      15
     525     528     534      15     516     513     519      22     510     513
     516      26     507     504     510      30     507     504     558      31
     504     558     561      35     504     558     564      35     501     504
     507      37     498     495     501      40     498     495     552      41
     495     552     555       5     492     486     495      44     489     486
     492      45     489     486     495      44     486     495     498      46
     483     486     489      52     483     486     492      52     657     654
     660       3     651     648     654       5     651     648     663       6
     648     654     657       7     648     654     660       7     639     636
     642       9     633     636     639       9     627     624     630      12
     621     624     627      15     621     624     630      15     612     609
     615      22     606     609     612      26     603     600     606      30
     603     600     654      31     600     654     657      35     600     654
     660      35     597     600     603      37     594     591     597      40
     594     591     648      41     591     648     651       5     588     582
     591      44     585     582     588      45     585     582     591      44
     582     591     594      46     579     582     585      52     579     582
     588      52     753     750     756       3     747     744     750       5
     747     744     759       6     744     750     753       7     744     750
     756       7     735     732     738       9     729     732     735       9
     723     720     726      12     717     720     723      15     717     720
     726      15     708     705     711      22     702     705     708      26
     699     696     702      30     699     696     750      31     696     750
     753      35     696     750     756      35     693     696     699      37
     690     687     693      40     690     687     744      41     687     744
     747       5     684     678     687      44     681     678     684      45
     681     678     687      44     678     687     690      46     675     678
     681      52     675     678     684      52     849     846     852       3
     843     840     846       5     843     840     855       6     840     846
     849       7     840     846     852       7     831     828     834       9
     825     828     831       9     819     816     822      12     813     816
     819      15     813     816     822      15     804     801     807      22
     798     801     804      26     795     792     798      30     795     792
     846      31     792     846     849      35     792     846     852      35
     789     792     795      37     786     783     789      40     786     783
     840      41     783     840     843       5     780     774     783      44
     777     774     780      45     777     774     783      44     774     783
     786      46     771     774     777      52     771     774     780      52
     945     942     948       3     939     936     942       5     939     936
     951      57     936     942     945       7     936     942     948       7
     936     951     954      58     927     924     930       9     921     924
     927       9     915     912     918      12     909     912     915      15
     909     912     918      15     900     897     903      22     894     897
     900      26     891     888     894      30     891     888     942      31
     888     942     945      35     888     942     948      35     885     888
     891      37     882     879     885      40     882     879     936      41
     879     936     939       5     876     870     879      44     873     870
     876      45     873     870     879      44     870     879     882      46
     867     870     873      52     867     870     876      52    1038    1035
    1041       3    1032    1029    1035       5    1032    1029    1044       6
    1029    1035    1038       7    1029    1035    1041       7    1020    1017
    1023      59    1011    1017    1020      59    1005     999    1008       3
    1002     999    1005       3    1002     999    1008       3     996     999
    1002      63     996     999    1005      63     996     999    1008      63
     993     990     996      66     987     990     993      70     984     981
     987      30     984     981    1035      31     981    1035    1038      35
     981    1035    1041      35     978     981     984      37     975     972
     978      40     975     972    1029      41     972    1029    1032       5
     969     963     972      44     966     963     969      45     966     963
     972      44     963     972     975      46     960     963     966      49
     960     963     969      49     957     960     963      51    1134    1131
    1137       3    1128    1125    1131       5    1128    1125    1140       6
    1125    1131    1134       7    1125    1131    1137       7    1116    1113
    1119      59    1107    1113    1116      59    1101    1095    1104       3
    1098    1095    1101       3    1098    1095    1104       3    1092    1095
    1098      63    1092    1095    1101      63    1092    1095    1104      63
    1089    1086    1092      66    1083    1086    1089      70    1080    1077
    1083      30    1080    1077    1131      31    1077    1131    1134      35
    1077    1131    1137      35    1074    1077    1080      37    1071    1068
    1074      40    1071    1068    1125      41    1068    1125    1128       5
    1065    1059    1068      44    1062    1059    1065      45    1062    1059
    1068      44    1059    1068    1071      46    1056    1059    1062      52
    1056    1059    1065      52    1230    1227    1233       3    1224    1221
    1227       5    1224    1221    1236       6    1221    1227    1230       7
    1221    1227    1233       7    1212    1209    1215      59    1203    1209
    1212      59    1197    1191    1200       3    1194    1191    1197       3
    1194    1191    1200       3    1188    1191    1194      63    1188    1191
    1197      63    1188    1191    1200      63    1185    1182    1188      66
    1179    1182    1185      70    1176    1173    1179      30    1176    1173
    1227      31    1173    1227    1230      35    1173    1227    1233      35
    1170    1173    1176      37    1167    1164    1170      40    1167    1164
    1221      41    1164    1221    1224       5    1161    1155    1164      44
    1158    1155    1161      45    1158    1155    1164      44    1155    1164
    1167      46    1152    1155    1158      52    1152    1155    1161      52
    1326    1323    1329       3    1320    1317    1323       5    1320    1317
    1332       6    1317    1323    1326       7    1317    1323    1329       7
    1308    1305    1311      59    1299    1305    1308      59    1293    1287
    1296       3    1290    1287    1293       3    1290    1287    1296       3
    1284    1287    1290      63    1284    1287    1293      63    1284    1287
    1296      63    1281    1278    1284      66    1275    1278    1281      70
    1272    1269    1275      30    1272    1269    1323      31    1269    1323
    1326      35    1269    1323    1329      35    1266    1269    1272      37
    1263    1260    1266      40    1263    1260    1317      41    1260    1317
    1320       5    1257    1251    1260      44    1254    1251    1257      45
    1254    1251    1260      44    1251    1260    1263      46    1248    1251
    1254      52    1248    1251    1257      52    1422    1419    1425       3
    1416    1413    1419       5    1416    1413    1428       6    1413    1419
    1422       7    1413    1419    1425       7    1404    1401    1407      59
    1395    1401    1404      59    1389    1383    1392       3    1386    1383
    1389       3    1386    1383    1392       3    1380    1383    1386      63
    1380    1383    1389      63    1380    1383    1392      63    1377    1374
    1380      66    1371    1374    1377      70    1368    1365    1371      30
    1368    1365    1419      31    1365    1419    1422      35    1365    1419
    1425      35    1362    1365    1368      37    1359    1356    1362      40
    1359    1356    1413      41    1356    1413    1416       5    1353    1347
    1356      44    1350    1347    1353      45    1350    1347    1356      44
    1347    1356    1359      46    1344    1347    1350      52    1344    1347
    1353      52    1518    1515    1521       3    1512    1509    1515       5
    1512    1509    1524       6    1509    1515    1518       7    1509    1515
    1521       7    1500    1497    1503      59    1491    1497    1500      59
    1485    1479    1488       3    1482    1479    1485       3    1482    1479
    1488       3    1476    1479    1482      63    1476    1479    1485      63
    1476    1479    1488      63    1473    1470    1476      66    1467    1470
    1473      70    1464    1461    1467      30    1464    1461    1515      31
    1461    1515    1518      35    1461    1515    1521      35    1458    1461
    1464      37    1455    1452    1458      40    1455    1452    1509      41
    1452    1509    1512       5    1449    1443    1452      44    1446    1443
    1449      45    1446    1443    1452      44    1443    1452    1455      46
    1440    1443    1446      52    1440    1443    1449      52    1614    1611
    1617       3    1608    1605    1611       5    1608    1605    1620       6
    1605    1611    1614       7    1605    1611    1617       7    1596    1593
    1599      59    1587    1593    1596      59    1581    1575    1584       3
    1578    1575    1581       3    1578    1575    1584       3    1572    1575
    1578      63    1572    1575    1581      63    1572    1575    1584      63
    1569    1566    1572      66    1563    1566    1569      70    1560    1557
    1563      30    1560    1557    1611      31    1557    1611    1614      35
    1557    1611    1617      35    1554    1557    1560      37    1551    1548
    1554      40    1551    1548    1605      41    1548    1605    1608       5
    1545    1539    1548      44    1542    1539    1545      45    1542    1539
    1548      44    1539    1548    1551      46    1536    1539    1542      52
    1536    1539    1545      52    1710    1707    1713       3    1704    1701
    1707       5    1704    1701    1716       6    1701    1707    1710       7
    1701    1707    1713       7    1692    1689    1695      59    1683    1689
    1692      59    1677    1671    1680       3    1674    1671    1677       3
    1674    1671    1680       3    1668    1671    1674      63    1668    1671
    1677      63    1668    1671    1680      63    1665    1662    1668      66
    1659    1662    1665      70    1656    1653    1659      30    1656    1653
    1707      31    1653    1707    1710      35    1653    1707    1713      35
    1650    1653    1656      37    1647    1644    1650      40    1647    1644
    1701      41    1644    1701    1704       5    1641    1635    1644      44
    1638    1635    1641      45    1638    1635    1644      44    1635    1644
    1647      46    1632    1635    1638      52    1632    1635    1641      52
    1806    1803    1809       3    1800    1797    1803       5    1800    1797
    1812       6    1797    1803    1806       7    1797    1803    1809       7
    1788    1785    1791      59    1779    1785    1788      59    1773    1767
    1776       3    1770    1767    1773       3    1770    1767    1776       3
    1764    1767    1770      63    1764    1767    1773      63    1764    1767
    1776      63    1761    1758    1764      66    1755    1758    1761      70
    1752    1749    1755      30    1752    1749    1803      31    1749    1803
    1806      35    1749    1803    1809      35    1746    1749    1752      37
    1743    1740    1746      40    1743    1740    1797      41    1740    1797
    1800       5    1737    1731    1740      44    1734    1731    1737      45
    1734    1731    1740      44    1731    1740    1743      46    1728    1731
    1734      52    1728    1731    1737      52    1902    1899    1905       3
    1896    1893    1899       5    1896    1893    1908      57    1893    1899
    1902       7    1893    1899    1905       7    1893    1908    1911      58
    1884    1881    1887      59    1875    1881    1884      59    1869    1863
    1872       3    1866    1863    1869       3    1866    1863    1872       3
    1860    1863    1866      63    1860    1863    1869      63    1860    1863
    1872      63    1857    1854    1860      66    1851    1854    1857      70
    1848    1845    1851      30    1848    1845    1899      31    1845    1899
    1902      35    1845    1899    1905      35    1842    1845    1848      37
    1839    1836    1842      40    1839    1836    1893      41    1836    1893
    1896       5    1833    1827    1836      44    1830    1827    1833      45
    1830    1827    1836      44    1827    1836    1839      46    1824    1827
    1830      52    1824    1827    1833      52
%FLAG ANGLES_WITHOUT_HYDROGEN                                                   
%FORMAT(10I8)                                                                   
      87      90      93       1      87      90      96       1      87      90
      99       2      78      72      87       4      72      87      90       8
      60      66      69      10      57      60      66      11      48      45
      57      13      45      42      69      14      45      57      60      16
      42      45      48      17      42      45      57      18      42      69
      66      19      39      42      45      20      39      42      69      21
      33      30      69      23      33      39      42      24      30      24
      78      25      30      33      39      27      30      69      42      28
      30      69      66      29      24      30      33      32      24      30
      69      33      24      78      72      34      21      15      72      36
      21      24      30      38      21      24      78      39      15      21
      24      42      15      72      78      43      15      72      87       4
       6      15      21      47       6      15      72      48       3       6
      15      50     183     186     189       1     183     186     192       1
     183     186     195       2     174     168     183       4     168     183
     186       8     156     162     165      10     153     156     162      11
     144     141     153      13     141     138     165      14     141     153
     156      16     138     141     144      17     138     141     153      18
     138     165     162      19     135     138     141      20     135     138
     165      21     129     126     165      23     129     135     138      24
     126     120     174      25     126     129     135      27     126     165
     138      28     126     165     162      29     120     126     129      32
     120     126     165      33     120     174     168      34     117     111
     168      36     117     120     126      38     117     120     174      39
     111     117     120      42     111     168     174      43     111     168
     183       4     102     111     117      47     102     111     168      48
      99     102     111      53      96      90      99       1      93      90
      96      54      93      90      99       1      90      99     102      55
     279     282     285       1     279     282     288       1     279     282
     291       2     270     264     279       4     264     279     282       8
     252     258     261      10     249     252     258      11     240     237
     249      13     237     234     261      14     237     249     252      16
     234     237     240      17     234     237     249      18     234     261
     258      19     231     234     237      20     231     234     261      21
     225     222     261      23     225     231     234      24     222     216
     270      25     222     225     231      27     222     261     234      28
     222     261     258      29     216     222     225      32     216     222
     261      33     216     270     264      34     213     207     264      36
     213     216     222      38     213     216     270      39     207     213
     216      42     207     264     270      43     207     264     279       4
     198     207     213      47     198     207     264      48     195     198
     207      53     192     186     195       1     189     186     192      54
     189     186     195       1     186     195     198      55     375     378
     381       1     375     378     384       1     375     378     387       2
     366     360     375       4     360     375     378       8     348     354
     357      10     345     348     354      11     336     333     345      13
     333     330     357      14     333     345     348      16     330     333
     336      17     330     333     345      18     330     357     354      19
     327     330     333      20     327     330     357      21     321     318
     357      23     321     327     330      24     318     312     366      25
     318     321     327      27     318     357     330      28     318     357
     354      29     312     318     321      32     312     318     357      33
     312     366     360      34     309     303     360      36     309     312
     318      38     309     312     366      39     303     309     312      42
     303     360     366      43     303     360     375       4     294     303
     309      47     294     303     360      48     291     294     303      53
     288     282     291       1     285     282     288      54     285     282
     291       1     282     291     294      55     471     474     477       1
     471     474     480       1     471     474     483       2     462     456
     471       4     456     471     474       8     444     450     453      10
     441     444     450      11     432     429     441      13     429     426
     453      14     429     441     444      16     426     429     432      17
     426     429     441      18     426     453     450      19     423     426
     429      20     423     426     453      21     417     414     453      23
     417     423     426      24     414     408     462      25     414     417
     423      27     414     453     426      28     414     453     450      29
     408     414     417      32     408     414     453      33     408     462
     456      34     405     399     456      36     405     408     414      38
     405     408     462      39     399     405     408      42     399     456
     462      43     399     456     471       4     390     399     405      47
     390     399     456      48     387     390     399      53     384     378
     387       1     381     378     384      54     381     378     387       1
     378     387     390      55     567     570     573       1     567     570
     576       1     567     570     579       2     558     552     567       4
     552     567     570       8     540     546     549      10     537     540
     546      11     528     525     537      13     525     522     549      14
     525     537     540      16     522     525     528      17     522     525
     537      18     522     549     546      19     519     522     525      20
     519     522     549      21     513     510     549      23     513     519
     522      24     510     504     558      25     510     513     519      27
     510     549     522      28     510     549     546      29     504     510
     513      32     504     510     549      33     504     558     552      34
     501     495     552      36     501     504     510      38     501     504
     558      39     495     501     504      42     495     552     558      43
     495     552     567       4     486     495     501      47     486     495
     552      48     483     486     495      53     480     474     483       1
     477     474     480      54     477     474     483       1     474     483
     486      55     663     666     669       1     663     666     672       1
     663     666     675       2     654     648     663       4     648     663
     666       8     636     642     645      10     633     636     642      11
     624     621     633      13     621     618     645      14     621     633
     636      16     618     621     624      17     618     621     633      18
     618     645     642      19     615     618     621      20     615     618
     645      21     609     606     645      23     609     615     618      24
     606     600     654      25     606     609     615      27     606     645
     618      28     606     645     642      29     600     606     609      32
     600     606     645      33     600     654     648      34     597     591
     648      36     597     600     606      38     597     600     654      39
     591     597     600      42     591     648     654      43     591     648
     663       4     582     591     597      47     582     591     648      48
     579     582     591      53     576     570     579       1     573     570
     576      54     573     570     579       1     570     579     582      55
     759     762     765       1     759     762     768       1     759     762
     771       2     750     744     759       4     744     759     762       8
     732     738     741      10     729     732     738      11     720     717
     729      13     717     714     741      14     717     729     732      16
     714     717     720      17     714     717     729      18     714     741
     738      19     711     714     717      20     711     714     741      21
     705     702     741      23     705     711     714      24     702     696
     750      25     702     705     711      27     702     741     714      28
     702     741     738      29     696     702     705      32     696     702
     741      33     696     750     744      34     693     687     744      36
     693     696     702      38     693     696     750      39     687     693
     696      42     687     744     750      43     687     744     759       4
     678     687     693      47     678     687     744      48     675     678
     687      53     672     666     675       1     669     666     672      54
     669     666     675       1     666     675     678      55     855     858
     861       1     855     858     864       1     855     858     867       2
     846     840     855       4     840     855     858       8     828     834
     837      10     825     828     834      11     816     813     825      13
     813     810     837      14     813     825     828      16     810     813
     816      17     810     813     825      18     810     837     834      19
     807     810     813      20     807     810     837      21     801     798
     837      23     801     807     810      24     798     792     846      25
     798     801     807      27     798     837     810      28     798     837
     834      29     792     798     801      32     792     798     837      33
     792     846     840      34     789     783     840      36     789     792
     798      38     789     792     846      39     783     789     792      42
     783     840     846      43     783     840     855       4     774     783
     789      47     774     783     840      48     771     774     783      53
     768     762     771       1     765     762     768      54     765     762
     771       1     762     771     774      55     942     936     951      56
     924     930     933      10     921     924     930      11     912     909
     921      13     909     906     933      14     909     921     924      16
     906     909     912      17     906     909     921      18     906     933
     930      19     903     906     909      20     903     906     933      21
     897     894     933      23     897     903     906      24     894     888
     942      25     894     897     903      27     894     933     906      28
     894     933     930      29     888     894     897      32     888     894
     933      33     888     942     936      34     885     879     936      36
     885     888     894      38     885     888     942      39     879     885
     888      42     879     936     942      43     879     936     951      56
     870     879     885      47     870     879     936      48     867     870
     879      53     864     858     867       1     861     858     864      54
     861     858     867       1     858     867     870      55    1044    1047
    1050       1    1044    1047    1053       1    1044    1047    1056       2
    1035    1029    1044       4    1029    1044    1047       8    1017    1023
    1026      60    1014    1011    1017      60    1011    1017    1023      61
     999     996    1011      62     996    1011    1014      64     996    1011
    1017      65     990     987    1023      67     990     996     999      68
     990     996    1011      69     987     981    1035      25     987     990
     996      71     987    1023    1017      72     987    1023    1026      73
     981     987     990      74     981     987    1023      75     981    1035
    1029      34     978     972    1029      36     978     981     987      38
     978     981    1035      39     972     978     981      42     972    1029
    1035      43     972    1029    1044       4     963     972     978      47
     963     972    1029      48     960     963     972      50    1140    1143
    1146       1    1140    1143    1149       1    1140    1143    1152       2
    1131    1125    1140       4    1125    1140    1143       8    1113    1119
    1122      60    1110    1107    1113      60    1107    1113    1119      61
    1095    1092    1107      62    1092    1107    1110      64    1092    1107
    1113      65    1086    1083    1119      67    1086    1092    1095      68
    1086    1092    1107      69    1083    1077    1131      25    1083    1086
    1092      71    1083    1119    1113      72    1083    1119    1122      73
    1077    1083    1086      74    1077    1083    1119      75    1077    1131
    1125      34    1074    1068    1125      36    1074    1077    1083      38
    1074    1077    1131      39    1068    1074    1077      42    1068    1125
    1131      43    1068    1125    1140       4    1059    1068    1074      47
    1059    1068    1125      48    1056    1059    1068      53    1053    1047
    1056       1    1050    1047    1053      54    1050    1047    1056       1
    1047    1056    1059      55    1236    1239    1242       1    1236    1239
    1245       1    1236    1239    1248       2    1227    1221    1236       4
    1221    1236    1239       8    1209    1215    1218      60    1206    1203
    1209      60    1203    1209    1215      61    1191    1188    1203      62
    1188    1203    1206      64    1188    1203    1209      65    1182    1179
    1215      67    1182    1188    1191      68    1182    1188    1203      69
    1179    1173    1227      25    1179    1182    1188      71    1179    1215
    1209      72    1179    1215    1218      73    1173    1179    1182      74
    1173    1179    1215      75    1173    1227    1221      34    1170    1164
    1221      36    1170    1173    1179      38    1170    1173    1227      39
    1164    1170    1173      42    1164    1221    1227      43    1164    1221
    1236       4    1155    1164    1170      47    1155    1164    1221      48
    1152    1155    1164      53    1149    1143    1152       1    1146    1143
    1149      54    1146    1143    1152       1    1143    1152    1155      55
    1332    1335    1338       1    1332    1335    1341       1    1332    1335
    1344       2    1323    1317    1332       4    1317    1332    1335       8
    1305    1311    1314      60    1302    1299    1305      60    1299    1305
    1311      61    1287    1284    1299      62    1284    1299    1302      64
    1284    1299    1305      65    1278    1275    1311      67    1278    1284
    1287      68    1278    1284    1299      69    1275    1269    1323      25
    1275    1278    1284      71    1275    1311    1305      72    1275    1311
    1314      73    1269    1275    1278      74    1269    1275    1311      75
    1269    1323    1317      34    1266    1260    1317      36    1266    1269
    1275      38    1266    1269    1323      39    1260    1266    1269      42
    1260    1317    1323      43    1260    1317    1332       4    1251    1260
    1266      47    1251    1260    1317      48    1248    1251    1260      53
    1245    1239    1248       1    1242    1239    1245      54    1242    1239
    1248       1    1239    1248    1251      55    1428    1431    1434       1
    1428    1431    1437       1    1428    1431    1440       2    1419    1413
    1428       4    1413    1428    1431       8    1401    1407    1410      60
    1398    1395    1401      60    1395    1401    1407      61    1383    1380
    1395      62    1380    1395    1398      64    1380    1395    1401      65
    1374    1371    1407      67    1374    1380    1383      68    1374    1380
    1395      69    1371    1365    1419      25    1371    1374    1380      71
    1371    1407    1401      72    1371    1407    1410      73    1365    1371
    1374      74    1365    1371    1407      75    1365    1419    1413      34
    1362    1356    1413      36    1362    1365    1371      38    1362    1365
    1419      39    1356    1362    1365      42    1356    1413    1419      43
    1356    1413    1428       4    1347    1356    1362      47    1347    1356
    1413      48    1344    1347    1356      53    1341    1335    1344       1
    1338    1335    1341      54    1338    1335    1344       1    1335    1344
    1347      55    1524    1527    1530       1    1524    1527    1533       1
    1524    1527    1536       2    1515    1509    1524       4    1509    1524
    1527       8    1497    1503    1506      60    1494    1491    1497      60
    1491    1497    1503      61    1479    1476    1491      62    1476    1491
    1494      64    1476    1491    1497      65    1470    1467    1503      67
    1470    1476    1479      68    1470    1476    1491      69    1467    1461
    1515      25    1467    1470    1476      71    1467    1503    1497      72
    1467    1503    1506      73    1461    1467    1470      74    1461    1467
    1503      75    1461    1515    1509      34    1458    1452    1509      36
    1458    1461    1467      38    1458    1461    1515      39    1452    1458
    1461      42    1452    1509    1515      43    1452    1509    1524       4
    1443    1452    1458      47    1443    1452    1509      48    1440    1443
    1452      53    1437    1431    1440       1    1434    1431    1437      54
    1434    1431    1440       1    1431    1440    1443      55    1620    1623
    1626       1    1620    1623    1629       1    1620    1623    1632       2
    1611    1605    1620       4    1605    1620    1623       8    1593    1599
    1602      60    1590    1587    1593      60    1587    1593    1599      61
    1575    1572    1587      62    1572    1587    1590      64    1572    1587
    1593      65    1566    1563    1599      67    1566    1572    1575      68
    1566    1572    1587      69    1563    1557    1611      25    1563    1566
    1572      71    1563    1599    1593      72    1563    1599    1602      73
    1557    1563    1566      74    1557    1563    1599      75    1557    1611
    1605      34    1554    1548    1605      36    1554    1557    1563      38
    1554    1557    1611      39    1548    1554    1557      42    1548    1605
    1611      43    1548    1605    1620       4    1539    1548    1554      47
    1539    1548    1605      48    1536    1539    1548      53    1533    1527
    1536       1    1530    1527    1533      54    1530    1527    1536       1
    1527    1536    1539      55    1716    1719    1722       1    1716    1719
    1725       1    1716    1719    1728       2    1707    1701    1716       4
    1701    1716    1719       8    1689    1695    1698      60    1686    1683
    1689      60    1683    1689    1695      61    1671    1668    1683      62
    1668    1683    1686      64    1668    1683    1689      65    1662    1659
    1695      67    1662    1668    1671      68    1662    1668    1683      69
    1659    1653    1707      25    1659    1662    1668      71    1659    1695
    1689      72    1659    1695    1698      73    1653    1659    1662      74
    1653    1659    1695      75    1653    1707    1701      34    1650    1644
    1701      36    1650    1653    1659      38    1650    1653    1707      39
    1644    1650    1653      42    1644    1701    1707      43    1644    1701
    1716       4    1635    1644    1650      47    1635    1644    1701      48
    1632    1635    1644      53    1629    1623    1632       1    1626    1623
    1629      54    1626    1623    1632       1    1623    1632    1635      55
    1812    1815    1818       1    1812    1815    1821       1    1812    1815
    1824       2    1803    1797    1812       4    1797    1812    1815       8
    1785    1791    1794      60    1782    1779    1785      60    1779    1785
    1791      61    1767    1764    1779      62    1764    1779    1782      64
    1764    1779    1785      65    1758    1755    1791      67    1758    1764
    1767      68    1758    1764    1779      69    1755    1749    1803      25
    1755    1758    1764      71    1755    1791    1785      72    1755    1791
    1794      73    1749    1755    1758      74    1749    1755    1791      75
    1749    1803    1797      34    1746    1740    1797      36    1746    1749
    1755      38    1746    1749    1803      39    1740    1746    1749      42
    1740    1797    1803      43    1740    1797    1812       4    1731    1740
    1746      47    1731    1740    1797      48    1728    1731    1740      53
    1725    1719    1728       1    1722    1719    1725      54    1722    1719
    1728       1    1719    1728    1731      55    1899    1893    1908      56
    1881    1887    1890      60    1878    1875    1881      60    1875    1881
    1887      61    1863    1860    1875      62    1860    1875    1878      64
    1860    1875    1881      65    1854    1851    1887      67    1854    1860
    1863      68    1854    1860    1875      69    1851    1845    1899      25
    1851    1854    1860      71    1851    1887    1881      72    1851    1887
    1890      73    1845    1851    1854      74    1845    1851    1887      75
    1845    1899    1893      34    1842    1836    1893      36    1842    1845
    1851      38    1842    1845    1899      39    1836    1842    1845      42
    1836    1893    1899      43    1836    1893    1908      56    1827    1836
    1842      47    1827    1836    1893      48    1824    1827    1836      53
    1821    1815    1824       1    1818    1815    1821      54    1818    1815
    1824       1    1815    1824    1827      55
%FLAG DIHEDRALS_INC_HYDROGEN                                                    
%FORMAT(10I8)                                                                   
      84      78      72      87       4      81      78      72      87       4
      75      72      78      81       4      75      72      78      84       4
      75      72      87      90       8      63      60      66      69      14
      54      48      45      57      16      51      48      45      57      16
      45      57      60      63      14      42      45      48      51      16
      42      45      48      54      16      36      33      30      69      20
      36      33      39      42      21      30      24      78      81       4
      30      24      78      84       4      27      24      30      33      13
      27      24      30      69      13      27      24      78      72       4
      27      24      78      81       4      27      24      78      84       4
      24      30      33      36      20      24      78      72      75       4
      21      15      72      75       4      21      24      78      81      32
      21      24     -78      81      33      21      24      78      84      32
      21      24     -78      84      33      18      15      21      24       8
      18      15      72      75       4      18      15      72      78       4
      18      15      72      87       4      15      21      24      27       8
      15      72      78      81       4      15      72      78      84       4
      12       6      15      18       4      12       6      15      21      32
      12       6     -15      21      33      12       6      15      72      38
       9       6      15      18       4       9       6      15      21      32
       9       6     -15      21      33       9       6      15      72      38
       6      15      72      75       4       3       6      15      18      32
       3       6     -15      18      33       0       3       6       9      42
       0       3       6      12      42       0       3       6      15      42
     180     174     168     183       4     177     174     168     183       4
     171     168     174     177       4     171     168     174     180       4
     171     168     183     186       8     159     156     162     165      14
     150     144     141     153      16     147     144     141     153      16
     141     153     156     159      14     138     141     144     147      16
     138     141     144     150      16     132     129     126     165      20
     132     129     135     138      21     126     120     174     177       4
     126     120     174     180       4     123     120     126     129      13
     123     120     126     165      13     123     120     174     168       4
     123     120     174     177       4     123     120     174     180       4
     120     126     129     132      20     120     174     168     171       4
     117     111     168     171       4     117     120     174     177      32
     117     120    -174     177      33     117     120     174     180      32
     117     120    -174     180      33     114     111     117     120       8
     114     111     168     171       4     114     111     168     174       4
     114     111     168     183       4     111     117     120     123       8
     111     168     174     177       4     111     168     174     180       4
     108     102     111     114       4     108     102     111     117      32
     108     102    -111     117      33     108     102     111     168      38
     105     102     111     114       4     105     102     111     117      32
     105     102    -111     117      33     105     102     111     168      38
     102     111     168     171       4      99     102     111     114      32
      99     102    -111     114      33      90      99     102     105       8
      90      99     102     108       8     276     270     264     279       4
     273     270     264     279       4     267     264     270     273       4
     267     264     270     276       4     267     264     279     282       8
     255     252     258     261      14     246     240     237     249      16
     243     240     237     249      16     237     249     252     255      14
     234     237     240     243      16     234     237     240     246      16
     228     225     222     261      20     228     225     231     234      21
     222     216     270     273       4     222     216     270     276       4
     219     216     222     225      13     219     216     222     261      13
     219     216     270     264       4     219     216     270     273       4
     219     216     270     276       4     216     222     225     228      20
     216     270     264     267       4     213     207     264     267       4
     213     216     270     273      32     213     216    -270     273      33
     213     216     270     276      32     213     216    -270     276      33
     210     207     213     216       8     210     207     264     267       4
     210     207     264     270       4     210     207     264     279       4
     207     213     216     219       8     207     264     270     273       4
     207     264     270     276       4     204     198     207     210       4
     204     198     207     213      32     204     198    -207     213      33
     204     198     207     264      38     201     198     207     210       4
     201     198     207     213      32     201     198    -207     213      33
     201     198     207     264      38     198     207     264     267       4
     195     198     207     210      32     195     198    -207     210      33
     186     195     198     201       8     186     195     198     204       8
     372     366     360     375       4     369     366     360     375       4
     363     360     366     369       4     363     360     366     372       4
     363     360     375     378       8     351     348     354     357      14
     342     336     333     345      16     339     336     333     345      16
     333     345     348     351      14     330     333     336     339      16
     330     333     336     342      16     324     321     318     357      20
     324     321     327     330      21     318     312     366     369       4
     318     312     366     372       4     315     312     318     321      13
     315     312     318     357      13     315     312     366     360       4
     315     312     366     369       4     315     312     366     372       4
     312     318     321     324      20     312     366     360     363       4
     309     303     360     363       4     309     312     366     369      32
     309     312    -366     369      33     309     312     366     372      32
     309     312    -366     372      33     306     303     309     312       8
     306     303     360     363       4     306     303     360     366       4
     306     303     360     375       4     303     309     312     315       8
     303     360     366     369       4     303     360     366     372       4
     300     294     303     306       4     300     294     303     309      32
     300     294    -303     309      33     300     294     303     360      38
     297     294     303     306       4     297     294     303     309      32
     297     294    -303     309      33     297     294     303     360      38
     294     303     360     363       4     291     294     303     306      32
     291     294    -303     306      33     282     291     294     297       8
     282     291     294     300       8     468     462     456     471       4
     465     462     456     471       4     459     456     462     465       4
     459     456     462     468       4     459     456     471     474       8
     447     444     450     453      14     438     432     429     441      16
     435     432     429     441      16     429     441     444     447      14
     426     429     432     435      16     426     429     432     438      16
     420     417     414     453      20     420     417     423     426      21
     414     408     462     465       4     414     408     462     468       4
     411     408     414     417      13     411     408     414     453      13
     411     408     462     456       4     411     408     462     465       4
     411     408     462     468       4     408     414     417     420      20
     408     462     456     459       4     405     399     456     459       4
     405     408     462     465      32     405     408    -462     465      33
     405     408     462     468      32     405     408    -462     468      33
     402     399     405     408       8     402     399     456     459       4
     402     399     456     462       4     402     399     456     471       4
     399     405     408     411       8     399     456     462     465       4
     399     456     462     468       4     396     390     399     402       4
     396     390     399     405      32     396     390    -399     405      33
     396     390     399     456      38     393     390     399     402       4
     393     390     399     405      32     393     390    -399     405      33
     393     390     399     456      38     390     399     456     459       4
     387     390     399     402      32     387     390    -399     402      33
     378     387     390     393       8     378     387     390     396       8
     564     558     552     567       4     561     558     552     567       4
     555     552     558     561       4     555     552     558     564       4
     555     552     567     570       8     543     540     546     549      14
     534     528     525     537      16     531     528     525     537      16
     525     537     540     543      14     522     525     528     531      16
     522     525     528     534      16     516     513     510     549      20
     516     513     519     522      21     510     504     558     561       4
     510     504     558     564       4     507     504     510     513      13
     507     504     510     549      13     507     504     558     552       4
     507     504     558     561       4     507     504     558     564       4
     504     510     513     516      20     504     558     552     555       4
     501     495     552     555       4     501     504     558     561      32
     501     504    -558     561      33     501     504     558     564      32
     501     504    -558     564      33     498     495     501     504       8
     498     495     552     555       4     498     495     552     558       4
     498     495     552     567       4     495     501     504     507       8
     495     552     558     561       4     495     552     558     564       4
     492     486     495     498       4     492     486     495     501      32
     492     486    -495     501      33     492     486     495     552      38
     489     486     495     498       4     489     486     495     501      32
     489     486    -495     501      33     489     486     495     552      38
     486     495     552     555       4     483     486     495     498      32
     483     486    -495     498      33     474     483     486     489       8
     474     483     486     492       8     660     654     648     663       4
     657     654     648     663       4     651     648     654     657       4
     651     648     654     660       4     651     648     663     666       8
     639     636     642     645      14     630     624     621     633      16
     627     624     621     633      16     621     633     636     639      14
     618     621     624     627      16     618     621     624     630      16
     612     609     606     645      20     612     609     615     618      21
     606     600     654     657       4     606     600     654     660       4
     603     600     606     609      13     603     600     606     645      13
     603     600     654     648       4     603     600     654     657       4
     603     600     654     660       4     600     606     609     612      20
     600     654     648     651       4     597     591     648     651       4
     597     600     654     657      32     597     600    -654     657      33
     597     600     654     660      32     597     600    -654     660      33
     594     591     597     600       8     594     591     648     651       4
     594     591     648     654       4     594     591     648     663       4
     591     597     600     603       8     591     648     654     657       4
     591     648     654     660       4     588     582     591     594       4
     588     582     591     597      32     588     582    -591     597      33
     588     582     591     648      38     585     582     591     594       4
     585     582     591     597      32     585     582    -591     597      33
     585     582     591     648      38     582     591     648     651       4
     579     582     591     594      32     579     582    -591     594      33
     570     579     582     585       8     570     579     582     588       8
     756     750     744     759       4     753     750     744     759       4
     747     744     750     753       4     747     744     750     756       4
     747     744     759     762       8     735     732     738     741      14
     726     720     717     729      16     723     720     717     729      16
     717     729     732     735      14     714     717     720     723      16
     714     717     720     726      16     708     705     702     741      20
     708     705     711     714      21     702     696     750     753       4
     702     696     750     756       4     699     696     702     705      13
     699     696     702     741      13     699     696     750     744       4
     699     696     750     753       4     699     696     750     756       4
     696     702     705     708      20     696     750     744     747       4
     693     687     744     747       4     693     696     750     753      32
     693     696    -750     753      33     693     696     750     756      32
     693     696    -750     756      33     690     687     693     696       8
     690     687     744     747       4     690     687     744     750       4
     690     687     744     759       4     687     693     696     699       8
     687     744     750     753       4     687     744     750     756       4
     684     678     687     690       4     684     678     687     693      32
     684     678    -687     693      33     684     678     687     744      38
     681     678     687     690       4     681     678     687     693      32
     681     678    -687     693      33     681     678     687     744      38
     678     687     744     747       4     675     678     687     690      32
     675     678    -687     690      33     666     675     678     681       8
     666     675     678     684       8     852     846     840     855       4
     849     846     840     855       4     843     840     846     849       4
     843     840     846     852       4     843     840     855     858       8
     831     828     834     837      14     822     816     813     825      16
     819     816     813     825      16     813     825     828     831      14
     810     813     816     819      16     810     813     816     822      16
     804     801     798     837      20     804     801     807     810      21
     798     792     846     849       4     798     792     846     852       4
     795     792     798     801      13     795     792     798     837      13
     795     792     846     840       4     795     792     846     849       4
     795     792     846     852       4     792     798     801     804      20
     792     846     840     843       4     789     783     840     843       4
     789     792     846     849      32     789     792    -846     849      33
     789     792     846     852      32     789     792    -846     852      33
     786     783     789     792       8     786     783     840     843       4
     786     783     840     846       4     786     783     840     855       4
     783     789     792     795       8     783     840     846     849       4
     783     840     846     852       4     780     774     783     786       4
     780     774     783     789      32     780     774    -783     789      33
     780     774     783     840      38     777     774     783     786       4
     777     774     783     789      32     777     774    -783     789      33
     777     774     783     840      38     774     783     840     843       4
     771     774     783     786      32     771     774    -783     786      33
     762     771     774     777       8     762     771     774     780       8
     948     942     936     951       4     945     942     936     951       4
     942     936     951     954       5     942     936    -951     954       6
     942     936    -951     954       7     939     936     942     945       4
     939     936     942     948       4     939     936     951     954      42
     927     924     930     933      14     918     912     909     921      16
     915     912     909     921      16     909     921     924     927      14
     906     909     912     915      16     906     909     912     918      16
     900     897     894     933      20     900     897     903     906      21
     894     888     942     945       4     894     888     942     948       4
     891     888     894     897      13     891     888     894     933      13
     891     888     942     936       4     891     888     942     945       4
     891     888     942     948       4     888     894     897     900      20
     888     942     936     939       4     885     879     936     939       4
     885     888     942     945      32     885     888    -942     945      33
     885     888     942     948      32     885     888    -942     948      33
     882     879     885     888       8     882     879     936     939       4
     882     879     936     942       4     882     879     936     951       4
     879     885     888     891       8     879     936     942     945       4
     879     936     942     948       4     879     936     951     954       5
     879     936    -951     954       6     879     936    -951     954       7
     876     870     879     882       4     876     870     879     885      32
     876     870    -879     885      33     876     870     879     936      38
     873     870     879     882       4     873     870     879     885      32
     873     870    -879     885      33     873     870     879     936      38
     870     879     936     939       4     867     870     879     882      32
     867     870    -879     882      33     858     867     870     873       8
     858     867     870     876       8    1041    1035    1029    1044       4
    1038    1035    1029    1044       4    1032    1029    1035    1038       4
    1032    1029    1035    1041       4    1032    1029    1044    1047       8
    1020    1017    1023    1026      43    1014    1011    1017    1020      43
    1008     999     996    1011      33    1005     999     996    1011      33
    1002     999     996    1011      33     996    1011    1017    1020      43
     993     990     987    1023      45     993     990     996     999      46
     993     990     996    1011      46     990     996     999    1002      48
     990     996    -999    1002      49     990     996     999    1005      48
     990     996    -999    1005      49     990     996     999    1008      48
     990     996    -999    1008      49     987     981    1035    1038       4
     987     981    1035    1041       4     987    1023    1017    1020      43
     984     981     987     990      13     984     981     987    1023      13
     984     981    1035    1029       4     984     981    1035    1038       4
     984     981    1035    1041       4     981     987     990     993      45
     981    1035    1029    1032       4     978     972    1029    1032       4
     978     981    1035    1038      32     978     981   -1035    1038      33
     978     981    1035    1041      32     978     981   -1035    1041      33
     975     972     978     981       8     975     972    1029    1032       4
     975     972    1029    1035       4     975     972    1029    1044       4
     972     978     981     984       8     972    1029    1035    1038       4
     972    1029    1035    1041       4     969     963     972     975       4
     969     963     972     978      32     969     963    -972     978      33
     969     963     972    1029      38     966     963     972     975       4
     966     963     972     978      32     966     963    -972     978      33
     966     963     972    1029      38     963     972    1029    1032       4
     960     963     972     975      32     960     963    -972     975      33
     957     960     963     966      42     957     960     963     969      42
     957     960     963     972      42    1137    1131    1125    1140       4
    1134    1131    1125    1140       4    1128    1125    1131    1134       4
    1128    1125    1131    1137       4    1128    1125    1140    1143       8
    1116    1113    1119    1122      43    1110    1107    1113    1116      43
    1104    1095    1092    1107      33    1101    1095    1092    1107      33
    1098    1095    1092    1107      33    1092    1107    1113    1116      43
    1089    1086    1083    1119      45    1089    1086    1092    1095      46
    1089    1086    1092    1107      46    1086    1092    1095    1098      48
    1086    1092   -1095    1098      49    1086    1092    1095    1101      48
    1086    1092   -1095    1101      49    1086    1092    1095    1104      48
    1086    1092   -1095    1104      49    1083    1077    1131    1134       4
    1083    1077    1131    1137       4    1083    1119    1113    1116      43
    1080    1077    1083    1086      13    1080    1077    1083    1119      13
    1080    1077    1131    1125       4    1080    1077    1131    1134       4
    1080    1077    1131    1137       4    1077    1083    1086    1089      45
    1077    1131    1125    1128       4    1074    1068    1125    1128       4
    1074    1077    1131    1134      32    1074    1077   -1131    1134      33
    1074    1077    1131    1137      32    1074    1077   -1131    1137      33
    1071    1068    1074    1077       8    1071    1068    1125    1128       4
    1071    1068    1125    1131       4    1071    1068    1125    1140       4
    1068    1074    1077    1080       8    1068    1125    1131    1134       4
    1068    1125    1131    1137       4    1065    1059    1068    1071       4
    1065    1059    1068    1074      32    1065    1059   -1068    1074      33
    1065    1059    1068    1125      38    1062    1059    1068    1071       4
    1062    1059    1068    1074      32    1062    1059   -1068    1074      33
    1062    1059    1068    1125      38    1059    1068    1125    1128       4
    1056    1059    1068    1071      32    1056    1059   -1068    1071      33
    1047    1056    1059    1062       8    1047    1056    1059    1065       8
    1233    1227    1221    1236       4    1230    1227    1221    1236       4
    1224    1221    1227    1230       4    1224    1221    1227    1233       4
    1224    1221    1236    1239       8    1212    1209    1215    1218      43
    1206    1203    1209    1212      43    1200    1191    1188    1203      33
    1197    1191    1188    1203      33    1194    1191    1188    1203      33
    1188    1203    1209    1212      43    1185    1182    1179    1215      45
    1185    1182    1188    1191      46    1185    1182    1188    1203      46
    1182    1188    1191    1194      48    1182    1188   -1191    1194      49
    1182    1188    1191    1197      48    1182    1188   -1191    1197      49
    1182    1188    1191    1200      48    1182    1188   -1191    1200      49
    1179    1173    1227    1230       4    1179    1173    1227    1233       4
    1179    1215    1209    1212      43    1176    1173    1179    1182      13
    1176    1173    1179    1215      13    1176    1173    1227    1221       4
    1176    1173    1227    1230       4    1176    1173    1227    1233       4
    1173    1179    1182    1185      45    1173    1227    1221    1224       4
    1170    1164    1221    1224       4    1170    1173    1227    1230      32
    1170    1173   -1227    1230      33    1170    1173    1227    1233      32
    1170    1173   -1227    1233      33    1167    1164    1170    1173       8
    1167    1164    1221    1224       4    1167    1164    1221    1227       4
    1167    1164    1221    1236       4    1164    1170    1173    1176       8
    1164    1221    1227    1230       4    1164    1221    1227    1233       4
    1161    1155    1164    1167       4    1161    1155    1164    1170      32
    1161    1155   -1164    1170      33    1161    1155    1164    1221      38
    1158    1155    1164    1167       4    1158    1155    1164    1170      32
    1158    1155   -1164    1170      33    1158    1155    1164    1221      38
    1155    1164    1221    1224       4    1152    1155    1164    1167      32
    1152    1155   -1164    1167      33    1143    1152    1155    1158       8
    1143    1152    1155    1161       8    1329    1323    1317    1332       4
    1326    1323    1317    1332       4    1320    1317    1323    1326       4
    1320    1317    1323    1329       4    1320    1317    1332    1335       8
    1308    1305    1311    1314      43    1302    1299    1305    1308      43
    1296    1287    1284    1299      33    1293    1287    1284    1299      33
    1290    1287    1284    1299      33    1284    1299    1305    1308      43
    1281    1278    1275    1311      45    1281    1278    1284    1287      46
    1281    1278    1284    1299      46    1278    1284    1287    1290      48
    1278    1284   -1287    1290      49    1278    1284    1287    1293      48
    1278    1284   -1287    1293      49    1278    1284    1287    1296      48
    1278    1284   -1287    1296      49    1275    1269    1323    1326       4
    1275    1269    1323    1329       4    1275    1311    1305    1308      43
    1272    1269    1275    1278      13    1272    1269    1275    1311      13
    1272    1269    1323    1317       4    1272    1269    1323    1326       4
    1272    1269    1323    1329       4    1269    1275    1278    1281      45
    1269    1323    1317    1320       4    1266    1260    1317    1320       4
    1266    1269    1323    1326      32    1266    1269   -1323    1326      33
    1266    1269    1323    1329      32    1266    1269   -1323    1329      33
    1263    1260    1266    1269       8    1263    1260    1317    1320       4
    1263    1260    1317    1323       4    1263    1260    1317    1332       4
    1260    1266    1269    1272       8    1260    1317    1323    1326       4
    1260    1317    1323    1329       4    1257    1251    1260    1263       4
    1257    1251    1260    1266      32    1257    1251   -1260    1266      33
    1257    1251    1260    1317      38    1254    1251    1260    1263       4
    1254    1251    1260    1266      32    1254    1251   -1260    1266      33
    1254    1251    1260    1317      38    1251    1260    1317    1320       4
    1248    1251    1260    1263      32    1248    1251   -1260    1263      33
    1239    1248    1251    1254       8    1239    1248    1251    1257       8
    1425    1419    1413    1428       4    1422    1419    1413    1428       4
    1416    1413    1419    1422       4    1416    1413    1419    1425       4
    1416    1413    1428    1431       8    1404    1401    1407    1410      43
    1398    1395    1401    1404      43    1392    1383    1380    1395      33
    1389    1383    1380    1395      33    1386    1383    1380    1395      33
    1380    1395    1401    1404      43    1377    1374    1371    1407      45
    1377    1374    1380    1383      46    1377    1374    1380    1395      46
    1374    1380    1383    1386      48    1374    1380   -1383    1386      49
    1374    1380    1383    1389      48    1374    1380   -1383    1389      49
    1374    1380    1383    1392      48    1374    1380   -1383    1392      49
    1371    1365    1419    1422       4    1371    1365    1419    1425       4
    1371    1407    1401    1404      43    1368    1365    1371    1374      13
    1368    1365    1371    1407      13    1368    1365    1419    1413       4
    1368    1365    1419    1422       4    1368    1365    1419    1425       4
    1365    1371    1374    1377      45    1365    1419    1413    1416       4
    1362    1356    1413    1416       4    1362    1365    1419    1422      32
    1362    1365   -1419    1422      33    1362    1365    1419    1425      32
    1362    1365   -1419    1425      33    1359    1356    1362    1365       8
    1359    1356    1413    1416       4    1359    1356    1413    1419       4
    1359    1356    1413    1428       4    1356    1362    1365    1368       8
    1356    1413    1419    1422       4    1356    1413    1419    1425       4
    1353    1347    1356    1359       4    1353    1347    1356    1362      32
    1353    1347   -1356    1362      33    1353    1347    1356    1413      38
    1350    1347    1356    1359       4    1350    1347    1356    1362      32
    1350    1347   -1356    1362      33    1350    1347    1356    1413      38
    1347    1356    1413    1416       4    1344    1347    1356    1359      32
    1344    1347   -1356    1359      33    1335    1344    1347    1350       8
    1335    1344    1347    1353       8    1521    1515    1509    1524       4
    1518    1515    1509    1524       4    1512    1509    1515    1518       4
    1512    1509    1515    1521       4    1512    1509    1524    1527       8
    1500    1497    1503    1506      43    1494    1491    1497    1500      43
    1488    1479    1476    1491      33    1485    1479    1476    1491      33
    1482    1479    1476    1491      33    1476    1491    1497    1500      43
    1473    1470    1467    1503      45    1473    1470    1476    1479      46
    1473    1470    1476    1491      46    1470    1476    1479    1482      48
    1470    1476   -1479    1482      49    1470    1476    1479    1485      48
    1470    1476   -1479    1485      49    1470    1476    1479    1488      48
    1470    1476   -1479    1488      49    1467    1461    1515    1518       4
    1467    1461    1515    1521       4    1467    1503    1497    1500      43
    1464    1461    1467    1470      13    1464    1461    1467    1503      13
    1464    1461    1515    1509       4    1464    1461    1515    1518       4
    1464    1461    1515    1521       4    1461    1467    1470    1473      45
    1461    1515    1509    1512       4    1458    1452    1509    1512       4
    1458    1461    1515    1518      32    1458    1461   -1515    1518      33
    1458    1461    1515    1521      32    1458    1461   -1515    1521      33
    1455    1452    1458    1461       8    1455    1452    1509    1512       4
    1455    1452    1509    1515       4    1455    1452    1509    1524       4
    1452    1458    1461    1464       8    1452    1509    1515    1518       4
    1452    1509    1515    1521       4    1449    1443    1452    1455       4
    1449    1443    1452    1458      32    1449    1443   -1452    1458      33
    1449    1443    1452    1509      38    1446    1443    1452    1455       4
    1446    1443    1452    1458      32    1446    1443   -1452    1458      33
    1446    1443    1452    1509      38    1443    1452    1509    1512       4
    1440    1443    1452    1455      32    1440    1443   -1452    1455      33
    1431    1440    1443    1446       8    1431    1440    1443    1449       8
    1617    1611    1605    1620       4    1614    1611    1605    1620       4
    1608    1605    1611    1614       4    1608    1605    1611    1617       4
    1608    1605    1620    1623       8    1596    1593    1599    1602      43
    1590    1587    1593    1596      43    1584    1575    1572    1587      33
    1581    1575    1572    1587      33    1578    1575    1572    1587      33
    1572    1587    1593    1596      43    1569    1566    1563    1599      45
    1569    1566    1572    1575      46    1569    1566    1572    1587      46
    1566    1572    1575    1578      48    1566    1572   -1575    1578      49
    1566    1572    1575    1581      48    1566    1572   -1575    1581      49
    1566    1572    1575    1584      48    1566    1572   -1575    1584      49
    1563    1557    1611    1614       4    1563    1557    1611    1617       4
    1563    1599    1593    1596      43    1560    1557    1563    1566      13
    1560    1557    1563    1599      13    1560    1557    1611    1605       4
    1560    1557    1611    1614       4    1560    1557    1611    1617       4
    1557    1563    1566    1569      45    1557    1611    1605    1608       4
    1554    1548    1605    1608       4    1554    1557    1611    1614      32
    1554    1557   -1611    1614      33    1554    1557    1611    1617      32
    1554    1557   -1611    1617      33    1551    1548    1554    1557       8
    1551    1548    1605    1608       4    1551    1548    1605    1611       4
    1551    1548    1605    1620       4    1548    1554    1557    1560       8
    1548    1605    1611    1614       4    1548    1605    1611    1617       4
    1545    1539    1548    1551       4    1545    1539    1548    1554      32
    1545    1539   -1548    1554      33    1545    1539    1548    1605      38
    1542    1539    1548    1551       4    1542    1539    1548    1554      32
    1542    1539   -1548    1554      33    1542    1539    1548    1605      38
    1539    1548    1605    1608       4    1536    1539    1548    1551      32
    1536    1539   -1548    1551      33    1527    1536    1539    1542       8
    1527    1536    1539    1545       8    1713    1707    1701    1716       4
    1710    1707    1701    1716       4    1704    1701    1707    1710       4
    1704    1701    1707    1713       4    1704    1701    1716    1719       8
    1692    1689    1695    1698      43    1686    1683    1689    1692      43
    1680    1671    1668    1683      33    1677    1671    1668    1683      33
    1674    1671    1668    1683      33    1668    1683    1689    1692      43
    1665    1662    1659    1695      45    1665    1662    1668    1671      46
    1665    1662    1668    1683      46    1662    1668    1671    1674      48
    1662    1668   -1671    1674      49    1662    1668    1671    1677      48
    1662    1668   -1671    1677      49    1662    1668    1671    1680      48
    1662    1668   -1671    1680      49    1659    1653    1707    1710       4
    1659    1653    1707    1713       4    1659    1695    1689    1692      43
    1656    1653    1659    1662      13    1656    1653    1659    1695      13
    1656    1653    1707    1701       4    1656    1653    1707    1710       4
    1656    1653    1707    1713       4    1653    1659    1662    1665      45
    1653    1707    1701    1704       4    1650    1644    1701    1704       4
    1650    1653    1707    1710      32    1650    1653   -1707    1710      33
    1650    1653    1707    1713      32    1650    1653   -1707    1713      33
    1647    1644    1650    1653       8    1647    1644    1701    1704       4
    1647    1644    1701    1707       4    1647    1644    1701    1716       4
    1644    1650    1653    1656       8    1644    1701    1707    1710       4
    1644    1701    1707    1713       4    1641    1635    1644    1647       4
    1641    1635    1644    1650      32    1641    1635   -1644    1650      33
    1641    1635    1644    1701      38    1638    1635    1644    1647       4
    1638    1635    1644    1650      32    1638    1635   -1644    1650      33
    1638    1635    1644    1701      38    1635    1644    1701    1704       4
    1632    1635    1644    1647      32    1632    1635   -1644    1647      33
    1623    1632    1635    1638       8    1623    1632    1635    1641       8
    1809    1803    1797    1812       4    1806    1803    1797    1812       4
    1800    1797    1803    1806       4    1800    1797    1803    1809       4
    1800    1797    1812    1815       8    1788    1785    1791    1794      43
    1782    1779    1785    1788      43    1776    1767    1764    1779      33
    1773    1767    1764    1779      33    1770    1767    1764    1779      33
    1764    1779    1785    1788      43    1761    1758    1755    1791      45
    1761    1758    1764    1767      46    1761    1758    1764    1779      46
    1758    1764    1767    1770      48    1758    1764   -1767    1770      49
    1758    1764    1767    1773      48    1758    1764   -1767    1773      49
    1758    1764    1767    1776      48    1758    1764   -1767    1776      49
    1755    1749    1803    1806       4    1755    1749    1803    1809       4
    1755    1791    1785    1788      43    1752    1749    1755    1758      13
    1752    1749    1755    1791      13    1752    1749    1803    1797       4
    1752    1749    1803    1806       4    1752    1749    1803    1809       4
    1749    1755    1758    1761      45    1749    1803    1797    1800       4
    1746    1740    1797    1800       4    1746    1749    1803    1806      32
    1746    1749   -1803    1806      33    1746    1749    1803    1809      32
    1746    1749   -1803    1809      33    1743    1740    1746    1749       8
    1743    1740    1797    1800       4    1743    1740    1797    1803       4
    1743    1740    1797    1812       4    1740    1746    1749    1752       8
    1740    1797    1803    1806       4    1740    1797    1803    1809       4
    1737    1731    1740    1743       4    1737    1731    1740    1746      32
    1737    1731   -1740    1746      33    1737    1731    1740    1797      38
    1734    1731    1740    1743       4    1734    1731    1740    1746      32
    1734    1731   -1740    1746      33    1734    1731    1740    1797      38
    1731    1740    1797    1800       4    1728    1731    1740    1743      32
    1728    1731   -1740    1743      33    1719    1728    1731    1734       8
    1719    1728    1731    1737       8    1905    1899    1893    1908       4
    1902    1899    1893    1908       4    1899    1893    1908    1911       5
    1899    1893   -1908    1911       6    1899    1893   -1908    1911       7
    1896    1893    1899    1902       4    1896    1893    1899    1905       4
    1896    1893    1908    1911      42    1884    1881    1887    1890      43
    1878    1875    1881    1884      43    1872    1863    1860    1875      33
    1869    1863    1860    1875      33    1866    1863    1860    1875      33
    1860    1875    1881    1884      43    1857    1854    1851    1887      45
    1857    1854    1860    1863      46    1857    1854    1860    1875      46
    1854    1860    1863    1866      48    1854    1860   -1863    1866      49
    1854    1860    1863    1869      48    1854    1860   -1863    1869      49
    1854    1860    1863    1872      48    1854    1860   -1863    1872      49
    1851    1845    1899    1902       4    1851    1845    1899    1905       4
    1851    1887    1881    1884      43    1848    1845    1851    1854      13
    1848    1845    1851    1887      13    1848    1845    1899    1893       4
    1848    1845    1899    1902       4    1848    1845    1899    1905       4
    1845    1851    1854    1857      45    1845    1899    1893    1896       4
    1842    1836    1893    1896       4    1842    1845    1899    1902      32
    1842    1845   -1899    1902      33    1842    1845    1899    1905      32
    1842    1845   -1899    1905      33    1839    1836    1842    1845       8
    1839    1836    1893    1896       4    1839    1836    1893    1899       4
    1839    1836    1893    1908       4    1836    1842    1845    1848       8
    1836    1893    1899    1902       4    1836    1893    1899    1905       4
    1836    1893    1908    1911       5    1836    1893   -1908    1911       6
    1836    1893   -1908    1911       7    1833    1827    1836    1839       4
    1833    1827    1836    1842      32    1833    1827   -1836    1842      33
    1833    1827    1836    1893      38    1830    1827    1836    1839       4
    1830    1827    1836    1842      32    1830    1827   -1836    1842      33
    1830    1827    1836    1893      38    1827    1836    1893    1896       4
    1824    1827    1836    1839      32    1824    1827   -1836    1839      33
    1815    1824    1827    1830       8    1815    1824    1827    1833       8
      57      66     -60     -63      54      45      51     -48     -54      55
      30      39     -33     -36      54     153     162    -156    -159      54
     141     147    -144    -150      55     126     135    -129    -132      54
     249     258    -252    -255      54     237     243    -240    -246      55
     222     231    -225    -228      54     345     354    -348    -351      54
     333     339    -336    -342      55     318     327    -321    -324      54
     441     450    -444    -447      54     429     435    -432    -438      55
     414     423    -417    -420      54     537     546    -540    -543      54
     525     531    -528    -534      55     510     519    -513    -516      54
     633     642    -636    -639      54     621     627    -624    -630      55
     606     615    -609    -612      54     729     738    -732    -735      54
     717     723    -720    -726      55     702     711    -705    -708      54
     825     834    -828    -831      54     813     819    -816    -822      55
     798     807    -801    -804      54     921     930    -924    -927      54
     909     915    -912    -918      55     894     903    -897    -900      54
    1011    1023   -1017   -1020      55     987     996    -990    -993      54
    1107    1119   -1113   -1116      55    1083    1092   -1086   -1089      54
    1203    1215   -1209   -1212      55    1179    1188   -1182   -1185      54
    1299    1311   -1305   -1308      55    1275    1284   -1278   -1281      54
    1395    1407   -1401   -1404      55    1371    1380   -1374   -1377      54
    1491    1503   -1497   -1500      55    1467    1476   -1470   -1473      54
    1587    1599   -1593   -1596      55    1563    1572   -1566   -1569      54
    1683    1695   -1689   -1692      55    1659    1668   -1662   -1665      54
    1779    1791   -1785   -1788      55    1755    1764   -1758   -1761      54
    1875    1887   -1881   -1884      55    1851    1860   -1854   -1857      54
%FLAG DIHEDRALS_WITHOUT_HYDROGEN                                                
%FORMAT(10I8)                                                                   
      87      90      99     102       1      87      90     -99     102       2
      87      90     -99     102       3      78      72      87      90       5
      78      72     -87      90       6      78      72     -87      90       7
      72      87      90      93       9      72      87      90      96       9
      72      87      90      99      10      72      87     -90      99      11
      72      87     -90      99      12      69      30      24      78      13
      57      45      42      69      15      57      60     -66      69      14
      48      45      42      69      15      48      45      57      60      17
      45      42      69      66      18      45      57     -60      66      14
      42      45      57      60      17      42      69     -66      60      19
      39      33     -30      69      20      39      42      45      48      15
      39      42      45      57      15      39      42      69      66      18
      33      30      24      78      13      33      30     -69      42      22
      33      30      69      66      22      33      39      42      45      23
      33      39     -42      69      23      30      24      78      72       4
      30      33     -39      42      21      30      69     -42      39      18
      30      69      42      45      18      30      69      66      60      19
      24      21     -15      72      24      24      21     -15      72      25
      24      30      33      39      20      24      30      69      42      22
      24      30      69      66      22      24      78      72      87       4
      21      15     -72      78      26      21      15      72      87      27
      21      15     -72      87      28      21      24      30      33      29
      21      24     -30      33      30      21      24     -30      33      31
      21      24      30      69      13      21      24     -78      72       4
      15      21      24      30      34      15      21     -24      30      35
      15      21     -24      78      24      15      21     -24      78      35
      15      72     -78      24      36      15      72     -78      24      37
      15      72      87      90       5      15      72     -87      90       6
      15      72     -87      90       7       6      15      21      24      24
       6      15     -21      24      35       6      15      72      78       4
       6      15      72      87       4       3       6      15      21       4
       3       6      15      72      39       3       6     -15      72      40
       3       6     -15      72      41     183     186     195     198       1
     183     186    -195     198       2     183     186    -195     198       3
     174     168     183     186       5     174     168    -183     186       6
     174     168    -183     186       7     168     183     186     189       9
     168     183     186     192       9     168     183     186     195      10
     168     183    -186     195      11     168     183    -186     195      12
     165     126     120     174      13     153     141     138     165      15
     153     156    -162     165      14     144     141     138     165      15
     144     141     153     156      17     141     138     165     162      18
     141     153    -156     162      14     138     141     153     156      17
     138     165    -162     156      19     135     129    -126     165      20
     135     138     141     144      15     135     138     141     153      15
     135     138     165     162      18     129     126     120     174      13
     129     126    -165     138      22     129     126     165     162      22
     129     135     138     141      23     129     135    -138     165      23
     126     120     174     168       4     126     129    -135     138      21
     126     165    -138     135      18     126     165     138     141      18
     126     165     162     156      19     120     117    -111     168      24
     120     117    -111     168      25     120     126     129     135      20
     120     126     165     138      22     120     126     165     162      22
     120     174     168     183       4     117     111    -168     174      26
     117     111     168     183      27     117     111    -168     183      28
     117     120     126     129      29     117     120    -126     129      30
     117     120    -126     129      31     117     120     126     165      13
     117     120    -174     168       4     111     117     120     126      34
     111     117    -120     126      35     111     117    -120     174      24
     111     117    -120     174      35     111     168    -174     120      36
     111     168    -174     120      37     111     168     183     186       5
     111     168    -183     186       6     111     168    -183     186       7
     102     111     117     120      24     102     111    -117     120      35
     102     111     168     174       4     102     111     168     183       4
      99     102     111     117       4      99     102     111     168      39
      99     102    -111     168      40      99     102    -111     168      41
      96      90      99     102       9      93      90      99     102       9
      90      99     102     111       8     279     282     291     294       1
     279     282    -291     294       2     279     282    -291     294       3
     270     264     279     282       5     270     264    -279     282       6
     270     264    -279     282       7     264     279     282     285       9
     264     279     282     288       9     264     279     282     291      10
     264     279    -282     291      11     264     279    -282     291      12
     261     222     216     270      13     249     237     234     261      15
     249     252    -258     261      14     240     237     234     261      15
     240     237     249     252      17     237     234     261     258      18
     237     249    -252     258      14     234     237     249     252      17
     234     261    -258     252      19     231     225    -222     261      20
     231     234     237     240      15     231     234     237     249      15
     231     234     261     258      18     225     222     216     270      13
     225     222    -261     234      22     225     222     261     258      22
     225     231     234     237      23     225     231    -234     261      23
     222     216     270     264       4     222     225    -231     234      21
     222     261    -234     231      18     222     261     234     237      18
     222     261     258     252      19     216     213    -207     264      24
     216     213    -207     264      25     216     222     225     231      20
     216     222     261     234      22     216     222     261     258      22
     216     270     264     279       4     213     207    -264     270      26
     213     207     264     279      27     213     207    -264     279      28
     213     216     222     225      29     213     216    -222     225      30
     213     216    -222     225      31     213     216     222     261      13
     213     216    -270     264       4     207     213     216     222      34
     207     213    -216     222      35     207     213    -216     270      24
     207     213    -216     270      35     207     264    -270     216      36
     207     264    -270     216      37     207     264     279     282       5
     207     264    -279     282       6     207     264    -279     282       7
     198     207     213     216      24     198     207    -213     216      35
     198     207     264     270       4     198     207     264     279       4
     195     198     207     213       4     195     198     207     264      39
     195     198    -207     264      40     195     198    -207     264      41
     192     186     195     198       9     189     186     195     198       9
     186     195     198     207       8     375     378     387     390       1
     375     378    -387     390       2     375     378    -387     390       3
     366     360     375     378       5     366     360    -375     378       6
     366     360    -375     378       7     360     375     378     381       9
     360     375     378     384       9     360     375     378     387      10
     360     375    -378     387      11     360     375    -378     387      12
     357     318     312     366      13     345     333     330     357      15
     345     348    -354     357      14     336     333     330     357      15
     336     333     345     348      17     333     330     357     354      18
     333     345    -348     354      14     330     333     345     348      17
     330     357    -354     348      19     327     321    -318     357      20
     327     330     333     336      15     327     330     333     345      15
     327     330     357     354      18     321     318     312     366      13
     321     318    -357     330      22     321     318     357     354      22
     321     327     330     333      23     321     327    -330     357      23
     318     312     366     360       4     318     321    -327     330      21
     318     357    -330     327      18     318     357     330     333      18
     318     357     354     348      19     312     309    -303     360      24
     312     309    -303     360      25     312     318     321     327      20
     312     318     357     330      22     312     318     357     354      22
     312     366     360     375       4     309     303    -360     366      26
     309     303     360     375      27     309     303    -360     375      28
     309     312     318     321      29     309     312    -318     321      30
     309     312    -318     321      31     309     312     318     357      13
     309     312    -366     360       4     303     309     312     318      34
     303     309    -312     318      35     303     309    -312     366      24
     303     309    -312     366      35     303     360    -366     312      36
     303     360    -366     312      37     303     360     375     378       5
     303     360    -375     378       6     303     360    -375     378       7
     294     303     309     312      24     294     303    -309     312      35
     294     303     360     366       4     294     303     360     375       4
     291     294     303     309       4     291     294     303     360      39
     291     294    -303     360      40     291     294    -303     360      41
     288     282     291     294       9     285     282     291     294       9
     282     291     294     303       8     471     474     483     486       1
     471     474    -483     486       2     471     474    -483     486       3
     462     456     471     474       5     462     456    -471     474       6
     462     456    -471     474       7     456     471     474     477       9
     456     471     474     480       9     456     471     474     483      10
     456     471    -474     483      11     456     471    -474     483      12
     453     414     408     462      13     441     429     426     453      15
     441     444    -450     453      14     432     429     426     453      15
     432     429     441     444      17     429     426     453     450      18
     429     441    -444     450      14     426     429     441     444      17
     426     453    -450     444      19     423     417    -414     453      20
     423     426     429     432      15     423     426     429     441      15
     423     426     453     450      18     417     414     408     462      13
     417     414    -453     426      22     417     414     453     450      22
     417     423     426     429      23     417     423    -426     453      23
     414     408     462     456       4     414     417    -423     426      21
     414     453    -426     423      18     414     453     426     429      18
     414     453     450     444      19     408     405    -399     456      24
     408     405    -399     456      25     408     414     417     423      20
     408     414     453     426      22     408     414     453     450      22
     408     462     456     471       4     405     399    -456     462      26
     405     399     456     471      27     405     399    -456     471      28
     405     408     414     417      29     405     408    -414     417      30
     405     408    -414     417      31     405     408     414     453      13
     405     408    -462     456       4     399     405     408     414      34
     399     405    -408     414      35     399     405    -408     462      24
     399     405    -408     462      35     399     456    -462     408      36
     399     456    -462     408      37     399     456     471     474       5
     399     456    -471     474       6     399     456    -471     474       7
     390     399     405     408      24     390     399    -405     408      35
     390     399     456     462       4     390     399     456     471       4
     387     390     399     405       4     387     390     399     456      39
     387     390    -399     456      40     387     390    -399     456      41
     384     378     387     390       9     381     378     387     390       9
     378     387     390     399       8     567     570     579     582       1
     567     570    -579     582       2     567     570    -579     582       3
     558     552     567     570       5     558     552    -567     570       6
     558     552    -567     570       7     552     567     570     573       9
     552     567     570     576       9     552     567     570     579      10
     552     567    -570     579      11     552     567    -570     579      12
     549     510     504     558      13     537     525     522     549      15
     537     540    -546     549      14     528     525     522     549      15
     528     525     537     540      17     525     522     549     546      18
     525     537    -540     546      14     522     525     537     540      17
     522     549    -546     540      19     519     513    -510     549      20
     519     522     525     528      15     519     522     525     537      15
     519     522     549     546      18     513     510     504     558      13
     513     510    -549     522      22     513     510     549     546      22
     513     519     522     525      23     513     519    -522     549      23
     510     504     558     552       4     510     513    -519     522      21
     510     549    -522     519      18     510     549     522     525      18
     510     549     546     540      19     504     501    -495     552      24
     504     501    -495     552      25     504     510     513     519      20
     504     510     549     522      22     504     510     549     546      22
     504     558     552     567       4     501     495    -552     558      26
     501     495     552     567      27     501     495    -552     567      28
     501     504     510     513      29     501     504    -510     513      30
     501     504    -510     513      31     501     504     510     549      13
     501     504    -558     552       4     495     501     504     510      34
     495     501    -504     510      35     495     501    -504     558      24
     495     501    -504     558      35     495     552    -558     504      36
     495     552    -558     504      37     495     552     567     570       5
     495     552    -567     570       6     495     552    -567     570       7
     486     495     501     504      24     486     495    -501     504      35
     486     495     552     558       4     486     495     552     567       4
     483     486     495     501       4     483     486     495     552      39
     483     486    -495     552      40     483     486    -495     552      41
     480     474     483     486       9     477     474     483     486       9
     474     483     486     495       8     663     666     675     678       1
     663     666    -675     678       2     663     666    -675     678       3
     654     648     663     666       5     654     648    -663     666       6
     654     648    -663     666       7     648     663     666     669       9
     648     663     666     672       9     648     663     666     675      10
     648     663    -666     675      11     648     663    -666     675      12
     645     606     600     654      13     633     621     618     645      15
     633     636    -642     645      14     624     621     618     645      15
     624     621     633     636      17     621     618     645     642      18
     621     633    -636     642      14     618     621     633     636      17
     618     645    -642     636      19     615     609    -606     645      20
     615     618     621     624      15     615     618     621     633      15
     615     618     645     642      18     609     606     600     654      13
     609     606    -645     618      22     609     606     645     642      22
     609     615     618     621      23     609     615    -618     645      23
     606     600     654     648       4     606     609    -615     618      21
     606     645    -618     615      18     606     645     618     621      18
     606     645     642     636      19     600     597    -591     648      24
     600     597    -591     648      25     600     606     609     615      20
     600     606     645     618      22     600     606     645     642      22
     600     654     648     663       4     597     591    -648     654      26
     597     591     648     663      27     597     591    -648     663      28
     597     600     606     609      29     597     600    -606     609      30
     597     600    -606     609      31     597     600     606     645      13
     597     600    -654     648       4     591     597     600     606      34
     591     597    -600     606      35     591     597    -600     654      24
     591     597    -600     654      35     591     648    -654     600      36
     591     648    -654     600      37     591     648     663     666       5
     591     648    -663     666       6     591     648    -663     666       7
     582     591     597     600      24     582     591    -597     600      35
     582     591     648     654       4     582     591     648     663       4
     579     582     591     597       4     579     582     591     648      39
     579     582    -591     648      40     579     582    -591     648      41
     576     570     579     582       9     573     570     579     582       9
     570     579     582     591       8     759     762     771     774       1
     759     762    -771     774       2     759     762    -771     774       3
     750     744     759     762       5     750     744    -759     762       6
     750     744    -759     762       7     744     759     762     765       9
     744     759     762     768       9     744     759     762     771      10
     744     759    -762     771      11     744     759    -762     771      12
     741     702     696     750      13     729     717     714     741      15
     729     732    -738     741      14     720     717     714     741      15
     720     717     729     732      17     717     714     741     738      18
     717     729    -732     738      14     714     717     729     732      17
     714     741    -738     732      19     711     705    -702     741      20
     711     714     717     720      15     711     714     717     729      15
     711     714     741     738      18     705     702     696     750      13
     705     702    -741     714      22     705     702     741     738      22
     705     711     714     717      23     705     711    -714     741      23
     702     696     750     744       4     702     705    -711     714      21
     702     741    -714     711      18     702     741     714     717      18
     702     741     738     732      19     696     693    -687     744      24
     696     693    -687     744      25     696     702     705     711      20
     696     702     741     714      22     696     702     741     738      22
     696     750     744     759       4     693     687    -744     750      26
     693     687     744     759      27     693     687    -744     759      28
     693     696     702     705      29     693     696    -702     705      30
     693     696    -702     705      31     693     696     702     741      13
     693     696    -750     744       4     687     693     696     702      34
     687     693    -696     702      35     687     693    -696     750      24
     687     693    -696     750      35     687     744    -750     696      36
     687     744    -750     696      37     687     744     759     762       5
     687     744    -759     762       6     687     744    -759     762       7
     678     687     693     696      24     678     687    -693     696      35
     678     687     744     750       4     678     687     744     759       4
     675     678     687     693       4     675     678     687     744      39
     675     678    -687     744      40     675     678    -687     744      41
     672     666     675     678       9     669     666     675     678       9
     666     675     678     687       8     855     858     867     870       1
     855     858    -867     870       2     855     858    -867     870       3
     846     840     855     858       5     846     840    -855     858       6
     846     840    -855     858       7     840     855     858     861       9
     840     855     858     864       9     840     855     858     867      10
     840     855    -858     867      11     840     855    -858     867      12
     837     798     792     846      13     825     813     810     837      15
     825     828    -834     837      14     816     813     810     837      15
     816     813     825     828      17     813     810     837     834      18
     813     825    -828     834      14     810     813     825     828      17
     810     837    -834     828      19     807     801    -798     837      20
     807     810     813     816      15     807     810     813     825      15
     807     810     837     834      18     801     798     792     846      13
     801     798    -837     810      22     801     798     837     834      22
     801     807     810     813      23     801     807    -810     837      23
     798     792     846     840       4     798     801    -807     810      21
     798     837    -810     807      18     798     837     810     813      18
     798     837     834     828      19     792     789    -783     840      24
     792     789    -783     840      25     792     798     801     807      20
     792     798     837     810      22     792     798     837     834      22
     792     846     840     855       4     789     783    -840     846      26
     789     783     840     855      27     789     783    -840     855      28
     789     792     798     801      29     789     792    -798     801      30
     789     792    -798     801      31     789     792     798     837      13
     789     792    -846     840       4     783     789     792     798      34
     783     789    -792     798      35     783     789    -792     846      24
     783     789    -792     846      35     783     840    -846     792      36
     783     840    -846     792      37     783     840     855     858       5
     783     840    -855     858       6     783     840    -855     858       7
     774     783     789     792      24     774     783    -789     792      35
     774     783     840     846       4     774     783     840     855       4
     771     774     783     789       4     771     774     783     840      39
     771     774    -783     840      40     771     774    -783     840      41
     768     762     771     774       9     765     762     771     774       9
     762     771     774     783       8     933     894     888     942      13
     921     909     906     933      15     921     924    -930     933      14
     912     909     906     933      15     912     909     921     924      17
     909     906     933     930      18     909     921    -924     930      14
     906     909     921     924      17     906     933    -930     924      19
     903     897    -894     933      20     903     906     909     912      15
     903     906     909     921      15     903     906     933     930      18
     897     894     888     942      13     897     894    -933     906      22
     897     894     933     930      22     897     903     906     909      23
     897     903    -906     933      23     894     888     942     936       4
     894     897    -903     906      21     894     933    -906     903      18
     894     933     906     909      18     894     933     930     924      19
     888     885    -879     936      24     888     885    -879     936      25
     888     894     897     903      20     888     894     933     906      22
     888     894     933     930      22     888     942     936     951       4
     885     879    -936     942      26     885     879     936     951      27
     885     879    -936     951      28     885     888     894     897      29
     885     888    -894     897      30     885     888    -894     897      31
     885     888     894     933      13     885     888    -942     936       4
     879     885     888     894      34     879     885    -888     894      35
     879     885    -888     942      24     879     885    -888     942      35
     879     936    -942     888      36     879     936    -942     888      37
     870     879     885     888      24     870     879    -885     888      35
     870     879     936     942       4     870     879     936     951       4
     867     870     879     885       4     867     870     879     936      39
     867     870    -879     936      40     867     870    -879     936      41
     864     858     867     870       9     861     858     867     870       9
     858     867     870     879       8    1044    1047    1056    1059       1
    1044    1047   -1056    1059       2    1044    1047   -1056    1059       3
    1035    1029    1044    1047       5    1035    1029   -1044    1047       6
    1035    1029   -1044    1047       7    1029    1044    1047    1050       9
    1029    1044    1047    1053       9    1029    1044    1047    1056      10
    1029    1044   -1047    1056      11    1029    1044   -1047    1056      12
    1023     987     981    1035      13    1014    1011    1017    1023      43
    1011    1017    1023    1026      43     999     996    1011    1014      44
     999     996    1011    1017      44     996     990     987    1023      45
     996    1011   -1017    1023      43     990     987     981    1035      13
     990     987    1023    1017      47     990     987    1023    1026      47
     990     996    1011    1014      44     990     996   -1011    1014      50
     990     996   -1011    1017      44     987     981    1035    1029       4
     987     990     996     999      46     987     990     996    1011      46
     987    1023   -1017    1011      43     981     978    -972    1029      24
     981     978    -972    1029      25     981     987     990     996      45
     981     987    1023    1017      47     981     987    1023    1026      47
     981    1035    1029    1044       4     978     972   -1029    1035      26
     978     972    1029    1044      27     978     972   -1029    1044      28
     978     981     987     990      51     978     981    -987     990      52
     978     981    -987     990      53     978     981     987    1023      13
     978     981   -1035    1029       4     972     978     981     987      34
     972     978    -981     987      35     972     978    -981    1035      24
     972     978    -981    1035      35     972    1029   -1035     981      36
     972    1029   -1035     981      37     972    1029    1044    1047       5
     972    1029   -1044    1047       6     972    1029   -1044    1047       7
     963     972     978     981      24     963     972    -978     981      35
     963     972    1029    1035       4     963     972    1029    1044       4
     960     963     972     978       4     960     963     972    1029      39
     960     963    -972    1029      40     960     963    -972    1029      41
    1140    1143    1152    1155       1    1140    1143   -1152    1155       2
    1140    1143   -1152    1155       3    1131    1125    1140    1143       5
    1131    1125   -1140    1143       6    1131    1125   -1140    1143       7
    1125    1140    1143    1146       9    1125    1140    1143    1149       9
    1125    1140    1143    1152      10    1125    1140   -1143    1152      11
    1125    1140   -1143    1152      12    1119    1083    1077    1131      13
    1110    1107    1113    1119      43    1107    1113    1119    1122      43
    1095    1092    1107    1110      44    1095    1092    1107    1113      44
    1092    1086    1083    1119      45    1092    1107   -1113    1119      43
    1086    1083    1077    1131      13    1086    1083    1119    1113      47
    1086    1083    1119    1122      47    1086    1092    1107    1110      44
    1086    1092   -1107    1110      50    1086    1092   -1107    1113      44
    1083    1077    1131    1125       4    1083    1086    1092    1095      46
    1083    1086    1092    1107      46    1083    1119   -1113    1107      43
    1077    1074   -1068    1125      24    1077    1074   -1068    1125      25
    1077    1083    1086    1092      45    1077    1083    1119    1113      47
    1077    1083    1119    1122      47    1077    1131    1125    1140       4
    1074    1068   -1125    1131      26    1074    1068    1125    1140      27
    1074    1068   -1125    1140      28    1074    1077    1083    1086      51
    1074    1077   -1083    1086      52    1074    1077   -1083    1086      53
    1074    1077    1083    1119      13    1074    1077   -1131    1125       4
    1068    1074    1077    1083      34    1068    1074   -1077    1083      35
    1068    1074   -1077    1131      24    1068    1074   -1077    1131      35
    1068    1125   -1131    1077      36    1068    1125   -1131    1077      37
    1068    1125    1140    1143       5    1068    1125   -1140    1143       6
    1068    1125   -1140    1143       7    1059    1068    1074    1077      24
    1059    1068   -1074    1077      35    1059    1068    1125    1131       4
    1059    1068    1125    1140       4    1056    1059    1068    1074       4
    1056    1059    1068    1125      39    1056    1059   -1068    1125      40
    1056    1059   -1068    1125      41    1053    1047    1056    1059       9
    1050    1047    1056    1059       9    1047    1056    1059    1068       8
    1236    1239    1248    1251       1    1236    1239   -1248    1251       2
    1236    1239   -1248    1251       3    1227    1221    1236    1239       5
    1227    1221   -1236    1239       6    1227    1221   -1236    1239       7
    1221    1236    1239    1242       9    1221    1236    1239    1245       9
    1221    1236    1239    1248      10    1221    1236   -1239    1248      11
    1221    1236   -1239    1248      12    1215    1179    1173    1227      13
    1206    1203    1209    1215      43    1203    1209    1215    1218      43
    1191    1188    1203    1206      44    1191    1188    1203    1209      44
    1188    1182    1179    1215      45    1188    1203   -1209    1215      43
    1182    1179    1173    1227      13    1182    1179    1215    1209      47
    1182    1179    1215    1218      47    1182    1188    1203    1206      44
    1182    1188   -1203    1206      50    1182    1188   -1203    1209      44
    1179    1173    1227    1221       4    1179    1182    1188    1191      46
    1179    1182    1188    1203      46    1179    1215   -1209    1203      43
    1173    1170   -1164    1221      24    1173    1170   -1164    1221      25
    1173    1179    1182    1188      45    1173    1179    1215    1209      47
    1173    1179    1215    1218      47    1173    1227    1221    1236       4
    1170    1164   -1221    1227      26    1170    1164    1221    1236      27
    1170    1164   -1221    1236      28    1170    1173    1179    1182      51
    1170    1173   -1179    1182      52    1170    1173   -1179    1182      53
    1170    1173    1179    1215      13    1170    1173   -1227    1221       4
    1164    1170    1173    1179      34    1164    1170   -1173    1179      35
    1164    1170   -1173    1227      24    1164    1170   -1173    1227      35
    1164    1221   -1227    1173      36    1164    1221   -1227    1173      37
    1164    1221    1236    1239       5    1164    1221   -1236    1239       6
    1164    1221   -1236    1239       7    1155    1164    1170    1173      24
    1155    1164   -1170    1173      35    1155    1164    1221    1227       4
    1155    1164    1221    1236       4    1152    1155    1164    1170       4
    1152    1155    1164    1221      39    1152    1155   -1164    1221      40
    1152    1155   -1164    1221      41    1149    1143    1152    1155       9
    1146    1143    1152    1155       9    1143    1152    1155    1164       8
    1332    1335    1344    1347       1    1332    1335   -1344    1347       2
    1332    1335   -1344    1347       3    1323    1317    1332    1335       5
    1323    1317   -1332    1335       6    1323    1317   -1332    1335       7
    1317    1332    1335    1338       9    1317    1332    1335    1341       9
    1317    1332    1335    1344      10    1317    1332   -1335    1344      11
    1317    1332   -1335    1344      12    1311    1275    1269    1323      13
    1302    1299    1305    1311      43    1299    1305    1311    1314      43
    1287    1284    1299    1302      44    1287    1284    1299    1305      44
    1284    1278    1275    1311      45    1284    1299   -1305    1311      43
    1278    1275    1269    1323      13    1278    1275    1311    1305      47
    1278    1275    1311    1314      47    1278    1284    1299    1302      44
    1278    1284   -1299    1302      50    1278    1284   -1299    1305      44
    1275    1269    1323    1317       4    1275    1278    1284    1287      46
    1275    1278    1284    1299      46    1275    1311   -1305    1299      43
    1269    1266   -1260    1317      24    1269    1266   -1260    1317      25
    1269    1275    1278    1284      45    1269    1275    1311    1305      47
    1269    1275    1311    1314      47    1269    1323    1317    1332       4
    1266    1260   -1317    1323      26    1266    1260    1317    1332      27
    1266    1260   -1317    1332      28    1266    1269    1275    1278      51
    1266    1269   -1275    1278      52    1266    1269   -1275    1278      53
    1266    1269    1275    1311      13    1266    1269   -1323    1317       4
    1260    1266    1269    1275      34    1260    1266   -1269    1275      35
    1260    1266   -1269    1323      24    1260    1266   -1269    1323      35
    1260    1317   -1323    1269      36    1260    1317   -1323    1269      37
    1260    1317    1332    1335       5    1260    1317   -1332    1335       6
    1260    1317   -1332    1335       7    1251    1260    1266    1269      24
    1251    1260   -1266    1269      35    1251    1260    1317    1323       4
    1251    1260    1317    1332       4    1248    1251    1260    1266       4
    1248    1251    1260    1317      39    1248    1251   -1260    1317      40
    1248    1251   -1260    1317      41    1245    1239    1248    1251       9
    1242    1239    1248    1251       9    1239    1248    1251    1260       8
    1428    1431    1440    1443       1    1428    1431   -1440    1443       2
    1428    1431   -1440    1443       3    1419    1413    1428    1431       5
    1419    1413   -1428    1431       6    1419    1413   -1428    1431       7
    1413    1428    1431    1434       9    1413    1428    1431    1437       9
    1413    1428    1431    1440      10    1413    1428   -1431    1440      11
    1413    1428   -1431    1440      12    1407    1371    1365    1419      13
    1398    1395    1401    1407      43    1395    1401    1407    1410      43
    1383    1380    1395    1398      44    1383    1380    1395    1401      44
    1380    1374    1371    1407      45    1380    1395   -1401    1407      43
    1374    1371    1365    1419      13    1374    1371    1407    1401      47
    1374    1371    1407    1410      47    1374    1380    1395    1398      44
    1374    1380   -1395    1398      50    1374    1380   -1395    1401      44
    1371    1365    1419    1413       4    1371    1374    1380    1383      46
    1371    1374    1380    1395      46    1371    1407   -1401    1395      43
    1365    1362   -1356    1413      24    1365    1362   -1356    1413      25
    1365    1371    1374    1380      45    1365    1371    1407    1401      47
    1365    1371    1407    1410      47    1365    1419    1413    1428       4
    1362    1356   -1413    1419      26    1362    1356    1413    1428      27
    1362    1356   -1413    1428      28    1362    1365    1371    1374      51
    1362    1365   -1371    1374      52    1362    1365   -1371    1374      53
    1362    1365    1371    1407      13    1362    1365   -1419    1413       4
    1356    1362    1365    1371      34    1356    1362   -1365    1371      35
    1356    1362   -1365    1419      24    1356    1362   -1365    1419      35
    1356    1413   -1419    1365      36    1356    1413   -1419    1365      37
    1356    1413    1428    1431       5    1356    1413   -1428    1431       6
    1356    1413   -1428    1431       7    1347    1356    1362    1365      24
    1347    1356   -1362    1365      35    1347    1356    1413    1419       4
    1347    1356    1413    1428       4    1344    1347    1356    1362       4
    1344    1347    1356    1413      39    1344    1347   -1356    1413      40
    1344    1347   -1356    1413      41    1341    1335    1344    1347       9
    1338    1335    1344    1347       9    1335    1344    1347    1356       8
    1524    1527    1536    1539       1    1524    1527   -1536    1539       2
    1524    1527   -1536    1539       3    1515    1509    1524    1527       5
    1515    1509   -1524    1527       6    1515    1509   -1524    1527       7
    1509    1524    1527    1530       9    1509    1524    1527    1533       9
    1509    1524    1527    1536      10    1509    1524   -1527    1536      11
    1509    1524   -1527    1536      12    1503    1467    1461    1515      13
    1494    1491    1497    1503      43    1491    1497    1503    1506      43
    1479    1476    1491    1494      44    1479    1476    1491    1497      44
    1476    1470    1467    1503      45    1476    1491   -1497    1503      43
    1470    1467    1461    1515      13    1470    1467    1503    1497      47
    1470    1467    1503    1506      47    1470    1476    1491    1494      44
    1470    1476   -1491    1494      50    1470    1476   -1491    1497      44
    1467    1461    1515    1509       4    1467    1470    1476    1479      46
    1467    1470    1476    1491      46    1467    1503   -1497    1491      43
    1461    1458   -1452    1509      24    1461    1458   -1452    1509      25
    1461    1467    1470    1476      45    1461    1467    1503    1497      47
    1461    1467    1503    1506      47    1461    1515    1509    1524       4
    1458    1452   -1509    1515      26    1458    1452    1509    1524      27
    1458    1452   -1509    1524      28    1458    1461    1467    1470      51
    1458    1461   -1467    1470      52    1458    1461   -1467    1470      53
    1458    1461    1467    1503      13    1458    1461   -1515    1509       4
    1452    1458    1461    1467      34    1452    1458   -1461    1467      35
    1452    1458   -1461    1515      24    1452    1458   -1461    1515      35
    1452    1509   -1515    1461      36    1452    1509   -1515    1461      37
    1452    1509    1524    1527       5    1452    1509   -1524    1527       6
    1452    1509   -1524    1527       7    1443    1452    1458    1461      24
    1443    1452   -1458    1461      35    1443    1452    1509    1515       4
    1443    1452    1509    1524       4    1440    1443    1452    1458       4
    1440    1443    1452    1509      39    1440    1443   -1452    1509      40
    1440    1443   -1452    1509      41    1437    1431    1440    1443       9
    1434    1431    1440    1443       9    1431    1440    1443    1452       8
    1620    1623    1632    1635       1    1620    1623   -1632    1635       2
    1620    1623   -1632    1635       3    1611    1605    1620    1623       5
    1611    1605   -1620    1623       6    1611    1605   -1620    1623       7
    1605    1620    1623    1626       9    1605    1620    1623    1629       9
    1605    1620    1623    1632      10    1605    1620   -1623    1632      11
    1605    1620   -1623    1632      12    1599    1563    1557    1611      13
    1590    1587    1593    1599      43    1587    1593    1599    1602      43
    1575    1572    1587    1590      44    1575    1572    1587    1593      44
    1572    1566    1563    1599      45    1572    1587   -1593    1599      43
    1566    1563    1557    1611      13    1566    1563    1599    1593      47
    1566    1563    1599    1602      47    1566    1572    1587    1590      44
    1566    1572   -1587    1590      50    1566    1572   -1587    1593      44
    1563    1557    1611    1605       4    1563    1566    1572    1575      46
    1563    1566    1572    1587      46    1563    1599   -1593    1587      43
    1557    1554   -1548    1605      24    1557    1554   -1548    1605      25
    1557    1563    1566    1572      45    1557    1563    1599    1593      47
    1557    1563    1599    1602      47    1557    1611    1605    1620       4
    1554    1548   -1605    1611      26    1554    1548    1605    1620      27
    1554    1548   -1605    1620      28    1554    1557    1563    1566      51
    1554    1557   -1563    1566      52    1554    1557   -1563    1566      53
    1554    1557    1563    1599      13    1554    1557   -1611    1605       4
    1548    1554    1557    1563      34    1548    1554   -1557    1563      35
    1548    1554   -1557    1611      24    1548    1554   -1557    1611      35
    1548    1605   -1611    1557      36    1548    1605   -1611    1557      37
    1548    1605    1620    1623       5    1548    1605   -1620    1623       6
    1548    1605   -1620    1623       7    1539    1548    1554    1557      24
    1539    1548   -1554    1557      35    1539    1548    1605    1611       4
    1539    1548    1605    1620       4    1536    1539    1548    1554       4
    1536    1539    1548    1605      39    1536    1539   -1548    1605      40
    1536    1539   -1548    1605      41    1533    1527    1536    1539       9
    1530    1527    1536    1539       9    1527    1536    1539    1548       8
    1716    1719    1728    1731       1    1716    1719   -1728    1731       2
    1716    1719   -1728    1731       3    1707    1701    1716    1719       5
    1707    1701   -1716    1719       6    1707    1701   -1716    1719       7
    1701    1716    1719    1722       9    1701    1716    1719    1725       9
    1701    1716    1719    1728      10    1701    1716   -1719    1728      11
    1701    1716   -1719    1728      12    1695    1659    1653    1707      13
    1686    1683    1689    1695      43    1683    1689    1695    1698      43
    1671    1668    1683    1686      44    1671    1668    1683    1689      44
    1668    1662    1659    1695      45    1668    1683   -1689    1695      43
    1662    1659    1653    1707      13    1662    1659    1695    1689      47
    1662    1659    1695    1698      47    1662    1668    1683    1686      44
    1662    1668   -1683    1686      50    1662    1668   -1683    1689      44
    1659    1653    1707    1701       4    1659    1662    1668    1671      46
    1659    1662    1668    1683      46    1659    1695   -1689    1683      43
    1653    1650   -1644    1701      24    1653    1650   -1644    1701      25
    1653    1659    1662    1668      45    1653    1659    1695    1689      47
    1653    1659    1695    1698      47    1653    1707    1701    1716       4
    1650    1644   -1701    1707      26    1650    1644    1701    1716      27
    1650    1644   -1701    1716      28    1650    1653    1659    1662      51
    1650    1653   -1659    1662      52    1650    1653   -1659    1662      53
    1650    1653    1659    1695      13    1650    1653   -1707    1701       4
    1644    1650    1653    1659      34    1644    1650   -1653    1659      35
    1644    1650   -1653    1707      24    1644    1650   -1653    1707      35
    1644    1701   -1707    1653      36    1644    1701   -1707    1653      37
    1644    1701    1716    1719       5    1644    1701   -1716    1719       6
    1644    1701   -1716    1719       7    1635    1644    1650    1653      24
    1635    1644   -1650    1653      35    1635    1644    1701    1707       4
    1635    1644    1701    1716       4    1632    1635    1644    1650       4
    1632    1635    1644    1701      39    1632    1635   -1644    1701      40
    1632    1635   -1644    1701      41    1629    1623    1632    1635       9
    1626    1623    1632    1635       9    1623    1632    1635    1644       8
    1812    1815    1824    1827       1    1812    1815   -1824    1827       2
    1812    1815   -1824    1827       3    1803    1797    1812    1815       5
    1803    1797   -1812    1815       6    1803    1797   -1812    1815       7
    1797    1812    1815    1818       9    1797    1812    1815    1821       9
    1797    1812    1815    1824      10    1797    1812   -1815    1824      11
    1797    1812   -1815    1824      12    1791    1755    1749    1803      13
    1782    1779    1785    1791      43    1779    1785    1791    1794      43
    1767    1764    1779    1782      44    1767    1764    1779    1785      44
    1764    1758    1755    1791      45    1764    1779   -1785    1791      43
    1758    1755    1749    1803      13    1758    1755    1791    1785      47
    1758    1755    1791    1794      47    1758    1764    1779    1782      44
    1758    1764   -1779    1782      50    1758    1764   -1779    1785      44
    1755    1749    1803    1797       4    1755    1758    1764    1767      46
    1755    1758    1764    1779      46    1755    1791   -1785    1779      43
    1749    1746   -1740    1797      24    1749    1746   -1740    1797      25
    1749    1755    1758    1764      45    1749    1755    1791    1785      47
    1749    1755    1791    1794      47    1749    1803    1797    1812       4
    1746    1740   -1797    1803      26    1746    1740    1797    1812      27
    1746    1740   -1797    1812      28    1746    1749    1755    1758      51
    1746    1749   -1755    1758      52    1746    1749   -1755    1758      53
    1746    1749    1755    1791      13    1746    1749   -1803    1797       4
    1740    1746    1749    1755      34    1740    1746   -1749    1755      35
    1740    1746   -1749    1803      24    1740    1746   -1749    1803      35
    1740    1797   -1803    1749      36    1740    1797   -1803    1749      37
    1740    1797    1812    1815       5    1740    1797   -1812    1815       6
    1740    1797   -1812    1815       7    1731    1740    1746    1749      24
    1731    1740   -1746    1749      35    1731    1740    1797    1803       4
    1731    1740    1797    1812       4    1728    1731    1740    1746       4
    1728    1731    1740    1797      39    1728    1731   -1740    1797      40
    1728    1731   -1740    1797      41    1725    1719    1728    1731       9
    1722    1719    1728    1731       9    1719    1728    1731    1740       8
    1887    1851    1845    1899      13    1878    1875    1881    1887      43
    1875    1881    1887    1890      43    1863    1860    1875    1878      44
    1863    1860    1875    1881      44    1860    1854    1851    1887      45
    1860    1875   -1881    1887      43    1854    1851    1845    1899      13
    1854    1851    1887    1881      47    1854    1851    1887    1890      47
    1854    1860    1875    1878      44    1854    1860   -1875    1878      50
    1854    1860   -1875    1881      44    1851    1845    1899    1893       4
    1851    1854    1860    1863      46    1851    1854    1860    1875      46
    1851    1887   -1881    1875      43    1845    1842   -1836    1893      24
    1845    1842   -1836    1893      25    1845    1851    1854    1860      45
    1845    1851    1887    1881      47    1845    1851    1887    1890      47
    1845    1899    1893    1908       4    1842    1836   -1893    1899      26
    1842    1836    1893    1908      27    1842    1836   -1893    1908      28
    1842    1845    1851    1854      51    1842    1845   -1851    1854      52
    1842    1845   -1851    1854      53    1842    1845    1851    1887      13
    1842    1845   -1899    1893       4    1836    1842    1845    1851      34
    1836    1842   -1845    1851      35    1836    1842   -1845    1899      24
    1836    1842   -1845    1899      35    1836    1893   -1899    1845      36
    1836    1893   -1899    1845      37    1827    1836    1842    1845      24
    1827    1836   -1842    1845      35    1827    1836    1893    1899       4
    1827    1836    1893    1908       4    1824    1827    1836    1842       4
    1824    1827    1836    1893      39    1824    1827   -1836    1893      40
    1824    1827   -1836    1893      41    1821    1815    1824    1827       9
    1818    1815    1824    1827       9    1815    1824    1827    1836       8
      42      48     -45     -57      54      69      33     -30     -24      55
     138     144    -141    -153      54     129     165    -126    -120      55
     234     240    -237    -249      54     225     261    -222    -216      55
     330     336    -333    -345      54     321     357    -318    -312      55
     426     432    -429    -441      54     417     453    -414    -408      55
     522     528    -525    -537      54     513     549    -510    -504      55
     618     624    -621    -633      54     609     645    -606    -600      55
     714     720    -717    -729      54     705     741    -702    -696      55
     810     816    -813    -825      54     801     837    -798    -792      55
     906     912    -909    -921      54     897     933    -894    -888      55
     987    1017   -1023   -1026      56     996    1017   -1011   -1014      56
    1011     990    -996    -999      54    1023     990    -987    -981      55
    1083    1113   -1119   -1122      56    1092    1113   -1107   -1110      56
    1107    1086   -1092   -1095      54    1119    1086   -1083   -1077      55
    1179    1209   -1215   -1218      56    1188    1209   -1203   -1206      56
    1203    1182   -1188   -1191      54    1215    1182   -1179   -1173      55
    1275    1305   -1311   -1314      56    1284    1305   -1299   -1302      56
    1299    1278   -1284   -1287      54    1311    1278   -1275   -1269      55
    1371    1401   -1407   -1410      56    1380    1401   -1395   -1398      56
    1395    1374   -1380   -1383      54    1407    1374   -1371   -1365      55
    1467    1497   -1503   -1506      56    1476    1497   -1491   -1494      56
    1491    1470   -1476   -1479      54    1503    1470   -1467   -1461      55
    1563    1593   -1599   -1602      56    1572    1593   -1587   -1590      56
    1587    1566   -1572   -1575      54    1599    1566   -1563   -1557      55
    1659    1689   -1695   -1698      56    1668    1689   -1683   -1686      56
    1683    1662   -1668   -1671      54    1695    1662   -1659   -1653      55
    1755    1785   -1791   -1794      56    1764    1785   -1779   -1782      56
    1779    1758   -1764   -1767      54    1791    1758   -1755   -1749      55
    1851    1881   -1887   -1890      56    1860    1881   -1875   -1878      56
    1875    1854   -1860   -1863      54    1887    1854   -1851   -1845      55
%FLAG EXCLUDED_ATOMS_LIST                                                       
%FORMAT(10I8)                                                                   
       2       3       4       5       6       3       4       5       6       7
       8      25       4       5       6       7       8       9      25      26
      27      30       5       6       7       8      25       6       7       8
      25       7       8       9      10      11      25      26      27      28
      29      30      31       8       9      25      26      27      30       9
      10      11      12      24      25      26      27      28      29      30
      10      11      12      13      14      15      23      24      25      26
      27      28      29      30      11      12      24      25      27      28
      29      12      13      14      15      16      21      23      24      25
      27      28      29      13      14      15      16      23      24      27
      14      15      24      15      16      17      20      23      24      16
      17      18      19      20      21      23      24      17      18      19
      20      21      22      23      24      18      19      20      21      24
      19      20      20      21      22      23      24      22      23      24
      23      24      24      27      26      27      28      29      30      31
      32      33      34      27      28      29      30      31      28      29
      30      31      29      30      30      31      32      33      34      35
      32      33      34      35      36      37      38      33      34      35
      34      35      35      36      37      38      39      40      57      36
      37      38      39      40      41      57      58      59      62      37
      38      39      40      57      38      39      40      57      39      40
      41      42      43      57      58      59      60      61      62      63
      40      41      57      58      59      62      41      42      43      44
      56      57      58      59      60      61      62      42      43      44
      45      46      47      55      56      57      58      59      60      61
      62      43      44      56      57      59      60      61      44      45
      46      47      48      53      55      56      57      59      60      61
      45      46      47      48      55      56      59      46      47      56
      47      48      49      52      55      56      48      49      50      51
      52      53      55      56      49      50      51      52      53      54
      55      56      50      51      52      53      56      51      52      52
      53      54      55      56      54      55      56      55      56      56
      59      58      59      60      61      62      63      64      65      66
      59      60      61      62      63      60      61      62      63      61
      62      62      63      64      65      66      67      64      65      66
      67      68      69      70      65      66      67      66      67      67
      68      69      70      71      72      89      68      69      70      71
      72      73      89      90      91      94      69      70      71      72
      89      70      71      72      89      71      72      73      74      75
      89      90      91      92      93      94      95      72      73      89
      90      91      94      73      74      75      76      88      89      90
      91      92      93      94      74      75      76      77      78      79
      87      88      89      90      91      92      93      94      75      76
      88      89      91      92      93      76      77      78      79      80
      85      87      88      89      91      92      93      77      78      79
      80      87      88      91      78      79      88      79      80      81
      84      87      88      80      81      82      83      84      85      87
      88      81      82      83      84      85      86      87      88      82
      83      84      85      88      83      84      84      85      86      87
      88      86      87      88      87      88      88      91      90      91
      92      93      94      95      96      97      98      91      92      93
      94      95      92      93      94      95      93      94      94      95
      96      97      98      99      96      97      98      99     100     101
     102      97      98      99      98      99      99     100     101     102
     103     104     121     100     101     102     103     104     105     121
     122     123     126     101     102     103     104     121     102     103
     104     121     103     104     105     106     107     121     122     123
     124     125     126     127     104     105     121     122     123     126
     105     106     107     108     120     121     122     123     124     125
     126     106     107     108     109     110     111     119     120     121
     122     123     124     125     126     107     108     120     121     123
     124     125     108     109     110     111     112     117     119     120
     121     123     124     125     109     110     111     112     119     120
     123     110     111     120     111     112     113     116     119     120
     112     113     114     115     116     117     119     120     113     114
     115     116     117     118     119     120     114     115     116     117
     120     115     116     116     117     118     119     120     118     119
     120     119     120     120     123     122     123     124     125     126
     127     128     129     130     123     124     125     126     127     124
     125     126     127     125     126     126     127     128     129     130
     131     128     129     130     131     132     133     134     129     130
     131     130     131     131     132     133     134     135     136     153
     132     133     134     135     136     137     153     154     155     158
     133     134     135     136     153     134     135     136     153     135
     136     137     138     139     153     154     155     156     157     158
     159     136     137     153     154     155     158     137     138     139
     140     152     153     154     155     156     157     158     138     139
     140     141     142     143     151     152     153     154     155     156
     157     158     139     140     152     153     155     156     157     140
     141     142     143     144     149     151     152     153     155     156
     157     141     142     143     144     151     152     155     142     143
     152     143     144     145     148     151     152     144     145     146
     147     148     149     151     152     145     146     147     148     149
     150     151     152     146     147     148     149     152     147     148
     148     149     150     151     152     150     151     152     151     152
     152     155     154     155     156     157     158     159     160     161
     162     155     156     157     158     159     156     157     158     159
     157     158     158     159     160     161     162     163     160     161
     162     163     164     165     166     161     162     163     162     163
     163     164     165     166     167     168     185     164     165     166
     167     168     169     185     186     187     190     165     166     167
     168     185     166     167     168     185     167     168     169     170
     171     185     186     187     188     189     190     191     168     169
     185     186     187     190     169     170     171     172     184     185
     186     187     188     189     190     170     171     172     173     174
     175     183     184     185     186     187     188     189     190     171
     172     184     185     187     188     189     172     173     174     175
     176     181     183     184     185     187     188     189     173     174
     175     176     183     184     187     174     175     184     175     176
     177     180     183     184     176     177     178     179     180     181
     183     184     177     178     179     180     181     182     183     184
     178     179     180     181     184     179     180     180     181     182
     183     184     182     183     184     183     184     184     187     186
     187     188     189     190     191     192     193     194     187     188
     189     190     191     188     189     190     191     189     190     190
     191     192     193     194     195     192     193     194     195     196
     197     198     193     194     195     194     195     195     196     197
     198     199     200     217     196     197     198     199     200     201
     217     218     219     222     197     198     199     200     217     198
     199     200     217     199     200     201     202     203     217     218
     219     220     221     222     223     200     201     217     218     219
     222     201     202     203     204     216     217     218     219     220
     221     222     202     203     204     205     206     207     215     216
     217     218     219     220     221     222     203     204     216     217
     219     220     221     204     205     206     207     208     213     215
     216     217     219     220     221     205     206     207     208     215
     216     219     206     207     216     207     208     209     212     215
     216     208     209     210     211     212     213     215     216     209
     210     211     212     213     214     215     216     210     211     212
     213     216     211     212     212     213     214     215     216     214
     215     216     215     216     216     219     218     219     220     221
     222     223     224     225     226     219     220     221     222     223
     220     221     222     223     221     222     222     223     224     225
     226     227     224     225     226     227     228     229     230     225
     226     227     226     227     227     228     229     230     231     232
     249     228     229     230     231     232     233     249     250     251
     254     229     230     231     232     249     230     231     232     249
     231     232     233     234     235     249     250     251     252     253
     254     255     232     233     249     250     251     254     233     234
     235     236     248     249     250     251     252     253     254     234
     235     236     237     238     239     247     248     249     250     251
     252     253     254     235     236     248     249     251     252     253
     236     237     238     239     240     245     247     248     249     251
     252     253     237     238     239     240     247     248     251     238
     239     248     239     240     241     244     247     248     240     241
     242     243     244     245     247     248     241     242     243     244
     245     246     247     248     242     243     244     245     248     243
     244     244     245     246     247     248     246     247     248     247
     248     248     251     250     251     252     253     254     255     256
     257     258     251     252     253     254     255     252     253     254
     255     253     254     254     255     256     257     258     259     256
     257     258     259     260     261     262     257     258     259     258
     259     259     260     261     262     263     264     281     260     261
     262     263     264     265     281     282     283     286     261     262
     263     264     281     262     263     264     281     263     264     265
     266     267     281     282     283     284     285     286     287     264
     265     281     282     283     286     265     266     267     268     280
     281     282     283     284     285     286     266     267     268     269
     270     271     279     280     281     282     283     284     285     286
     267     268     280     281     283     284     285     268     269     270
     271     272     277     279     280     281     283     284     285     269
     270     271     272     279     280     283     270     271     280     271
     272     273     276     279     280     272     273     274     275     276
     277     279     280     273     274     275     276     277     278     279
     280     274     275     276     277     280     275     276     276     277
     278     279     280     278     279     280     279     280     280     283
     282     283     284     285     286     287     288     289     290     283
     284     285     286     287     284     285     286     287     285     286
     286     287     288     289     290     291     288     289     290     291
     292     293     294     289     290     291     290     291     291     292
     293     294     295     296     313     292     293     294     295     296
     297     313     314     315     318     293     294     295     296     313
     294     295     296     313     295     296     297     298     299     313
     314     315     316     317     318     319     296     297     313     314
     315     318     297     298     299     300     312     313     314     315
     316     317     318     298     299     300     301     302     303     311
     312     313     314     315     316     317     318     299     300     312
     313     315     316     317     300     301     302     303     304     309
     311     312     313     315     316     317     301     302     303     304
     311     312     315     302     303     312     303     304     305     308
     311     312     304     305     306     307     308     309     311     312
     305     306     307     308     309     310     311     312     306     307
     308     309     312     307     308     308     309     310     311     312
     310     311     312     311     312     312     315     314     315     316
     317     318     319     315     316     317     318     319     316     317
     318     319     317     318     318     319       0     321     322     323
     324     325     322     323     324     325     326     327     344     323
     324     325     326     327     328     344     345     346     349     324
     325     326     327     344     325     326     327     344     326     327
     328     329     330     344     345     346     347     348     349     350
     327     328     344     345     346     349     328     329     330     331
     342     344     345     346     347     348     349     329     330     331
     332     333     340     342     343     344     345     346     347     348
     349     330     331     342     344     346     347     348     331     332
     333     334     338     340     341     342     343     344     346     347
     348     332     333     334     335     336     337     338     339     340
     342     343     346     333     334     338     342     334     335     336
     337     338     339     340     341     342     335     336     337     338
     339     340     336     337     338     337     338     338     339     340
     341     342     343     340     341     342     341     342     343     342
     343     343     346       0     345     346     347     348     349     350
     351     352     353     346     347     348     349     350     347     348
     349     350     348     349     349     350     351     352     353     354
     351     352     353     354     355     356     357     352     353     354
     353     354     354     355     356     357     358     359     376     355
     356     357     358     359     360     376     377     378     381     356
     357     358     359     376     357     358     359     376     358     359
     360     361     362     376     377     378     379     380     381     382
     359     360     376     377     378     381     360     361     362     363
     374     376     377     378     379     380     381     361     362     363
     364     365     372     374     375     376     377     378     379     380
     381     362     363     374     376     378     379     380     363     364
     365     366     370     372     373     374     375     376     378     379
     380     364     365     366     367     368     369     370     371     372
     374     375     378     365     366     370     374     366     367     368
     369     370     371     372     373     374     367     368     369     370
     371     372     368     369     370     369     370     370     371     372
     373     374     375     372     373     374     373     374     375     374
     375     375     378       0     377     378     379     380     381     382
     383     384     385     378     379     380     381     382     379     380
     381     382     380     381     381     382     383     384     385     386
     383     384     385     386     387     388     389     384     385     386
     385     386     386     387     388     389     390     391     408     387
     388     389     390     391     392     408     409     410     413     388
     389     390     391     408     389     390     391     408     390     391
     392     393     394     408     409     410     411     412     413     414
     391     392     408     409     410     413     392     393     394     395
     406     408     409     410     411     412     413     393     394     395
     396     397     404     406     407     408     409     410     411     412
     413     394     395     406     408     410     411     412     395     396
     397     398     402     404     405     406     407     408     410     411
     412     396     397     398     399     400     401     402     403     404
     406     407     410     397     398     402     406     398     399     400
     401     402     403     404     405     406     399     400     401     402
     403     404     400     401     402     401     402     402     403     404
     405     406     407     404     405     406     405     406     407     406
     407     407     410       0     409     410     411     412     413     414
     415     416     417     410     411     412     413     414     411     412
     413     414     412     413     413     414     415     416     417     418
     415     416     417     418     419     420     421     416     417     418
     417     418     418     419     420     421     422     423     440     419
     420     421     422     423     424     440     441     442     445     420
     421     422     423     440     421     422     423     440     422     423
     424     425     426     440     441     442     443     444     445     446
     423     424     440     441     442     445     424     425     426     427
     438     440     441     442     443     444     445     425     426     427
     428     429     436     438     439     440     441     442     443     444
     445     426     427     438     440     442     443     444     427     428
     429     430     434     436     437     438     439     440     442     443
     444     428     429     430     431     432     433     434     435     436
     438     439     442     429     430     434     438     430     431     432
     433     434     435     436     437     438     431     432     433     434
     435     436     432     433     434     433     434     434     435     436
     437     438     439     436     437     438     437     438     439     438
     439     439     442       0     441     442     443     444     445     446
     447     448     449     442     443     444     445     446     443     444
     445     446     444     445     445     446     447     448     449     450
     447     448     449     450     451     452     453     448     449     450
     449     450     450     451     452     453     454     455     472     451
     452     453     454     455     456     472     473     474     477     452
     453     454     455     472     453     454     455     472     454     455
     456     457     458     472     473     474     475     476     477     478
     455     456     472     473     474     477     456     457     458     459
     470     472     473     474     475     476     477     457     458     459
     460     461     468     470     471     472     473     474     475     476
     477     458     459     470     472     474     475     476     459     460
     461     462     466     468     469     470     471     472     474     475
     476     460     461     462     463     464     465     466     467     468
     470     471     474     461     462     466     470     462     463     464
     465     466     467     468     469     470     463     464     465     466
     467     468     464     465     466     465     466     466     467     468
     469     470     471     468     469     470     469     470     471     470
     471     471     474       0     473     474     475     476     477     478
     479     480     481     474     475     476     477     478     475     476
     477     478     476     477     477     478     479     480     481     482
     479     480     481     482     483     484     485     480     481     482
     481     482     482     483     484     485     486     487     504     483
     484     485     486     487     488     504     505     506     509     484
     485     486     487     504     485     486     487     504     486     487
     488     489     490     504     505     506     507     508     509     510
     487     488     504     505     506     509     488     489     490     491
     502     504     505     506     507     508     509     489     490     491
     492     493     500     502     503     504     505     506     507     508
     509     490     491     502     504     506     507     508     491     492
     493     494     498     500     501     502     503     504     506     507
     508     492     493     494     495     496     497     498     499     500
     502     503     506     493     494     498     502     494     495     496
     497     498     499     500     501     502     495     496     497     498
     499     500     496     497     498     497     498     498     499     500
     501     502     503     500     501     502     501     502     503     502
     503     503     506       0     505     506     507     508     509     510
     511     512     513     506     507     508     509     510     507     508
     509     510     508     509     509     510     511     512     513     514
     511     512     513     514     515     516     517     512     513     514
     513     514     514     515     516     517     518     519     536     515
     516     517     518     519     520     536     537     538     541     516
     517     518     519     536     517     518     519     536     518     519
     520     521     522     536     537     538     539     540     541     542
     519     520     536     537     538     541     520     521     522     523
     534     536     537     538     539     540     541     521     522     523
     524     525     532     534     535     536     537     538     539     540
     541     522     523     534     536     538     539     540     523     524
     525     526     530     532     533     534     535     536     538     539
     540     524     525     526     527     528     529     530     531     532
     534     535     538     525     526     530     534     526     527     528
     529     530     531     532     533     534     527     528     529     530
     531     532     528     529     530     529     530     530     531     532
     533     534     535     532     533     534     533     534     535     534
     535     535     538       0     537     538     539     540     541     542
     543     544     545     538     539     540     541     542     539     540
     541     542     540     541     541     542     543     544     545     546
     543     544     545     546     547     548     549     544     545     546
     545     546     546     547     548     549     550     551     568     547
     548     549     550     551     552     568     569     570     573     548
     549     550     551     568     549     550     551     568     550     551
     552     553     554     568     569     570     571     572     573     574
     551     552     568     569     570     573     552     553     554     555
     566     568     569     570     571     572     573     553     554     555
     556     557     564     566     567     568     569     570     571     572
     573     554     555     566     568     570     571     572     555     556
     557     558     562     564     565     566     567     568     570     571
     572     556     557     558     559     560     561     562     563     564
     566     567     570     557     558     562     566     558     559     560
     561     562     563     564     565     566     559     560     561     562
     563     564     560     561     562     561     562     562     563     564
     565     566     567     564     565     566     565     566     567     566
     567     567     570       0     569     570     571     572     573     574
     575     576     577     570     571     572     573     574     571     572
     573     574     572     573     573     574     575     576     577     578
     575     576     577     578     579     580     581     576     577     578
     577     578     578     579     580     581     582     583     600     579
     580     581     582     583     584     600     601     602     605     580
     581     582     583     600     581     582     583     600     582     583
     584     585     586     600     601     602     603     604     605     606
     583     584     600     601     602     605     584     585     586     587
     598     600     601     602     603     604     605     585     586     587
     588     589     596     598     599     600     601     602     603     604
     605     586     587     598     600     602     603     604     587     588
     589     590     594     596     597     598     599     600     602     603
     604     588     589     590     591     592     593     594     595     596
     598     599     602     589     590     594     598     590     591     592
     593     594     595     596     597     598     591     592     593     594
     595     596     592     593     594     593     594     594     595     596
     597     598     599     596     597     598     597     598     599     598
     599     599     602       0     601     602     603     604     605     606
     607     608     609     602     603     604     605     606     603     604
     605     606     604     605     605     606     607     608     609     610
     607     608     609     610     611     612     613     608     609     610
     609     610     610     611     612     613     614     615     632     611
     612     613     614     615     616     632     633     634     637     612
     613     614     615     632     613     614     615     632     614     615
     616     617     618     632     633     634     635     636     637     638
     615     616     632     633     634     637     616     617     618     619
     630     632     633     634     635     636     637     617     618     619
     620     621     628     630     631     632     633     634     635     636
     637     618     619     630     632     634     635     636     619     620
     621     622     626     628     629     630     631     632     634     635
     636     620     621     622     623     624     625     626     627     628
     630     631     634     621     622     626     630     622     623     624
     625     626     627     628     629     630     623     624     625     626
     627     628     624     625     626     625     626     626     627     628
     629     630     631     628     629     630     629     630     631     630
     631     631     634       0     633     634     635     636     637     638
     634     635     636     637     638     635     636     637     638     636
     637     637     638       0       0       0       0       0       0       0
       0       0       0       0       0       0       0       0       0       0
       0       0
%FLAG HBOND_ACOEF                                                               
%FORMAT(5E16.8)                                                                 

%FLAG HBOND_BCOEF                                                               
%FORMAT(5E16.8)                                                                 

%FLAG HBCUT                                                                     
%FORMAT(5E16.8)                                                                 

%FLAG AMBER_ATOM_TYPE                                                           
%FORMAT(20a4)                                                                   
HO  OH  CI  H1  H1  CT  H1  OS  CT  H2  N*  C1  H5  NB  CB  CA  N2  H   H   NC  
CQ  H5  NC  CB  CE  H1  CT  HC  HC  OS  P   O2  O2  OS  CI  H1  H1  CT  H1  OS  
CT  H2  N*  C1  H5  NB  CB  CA  N2  H   H   NC  CQ  H5  NC  CB  CE  H1  CT  HC  
HC  OS  P   O2  O2  OS  CI  H1  H1  CT  H1  OS  CT  H2  N*  C1  H5  NB  CB  CA  
N2  H   H   NC  CQ  H5  NC  CB  CE  H1  CT  HC  HC  OS  P   O2  O2  OS  CI  H1  
H1  CT  H1  OS  CT  H2  N*  C1  H5  NB  CB  CA  N2  H   H   NC  CQ  H5  NC  CB  
CE  H1  CT  HC  HC  OS  P   O2  O2  OS  CI  H1  H1  CT  H1  OS  CT  H2  N*  C1  
H5  NB  CB  CA  N2  H   H   NC  CQ  H5  NC  CB  CE  H1  CT  HC  HC  OS  P   O2  
O2  OS  CI  H1  H1  CT  H1  OS  CT  H2  N*  C1  H5  NB  CB  CA  N2  H   H   NC  
CQ  H5  NC  CB  CE  H1  CT  HC  HC  OS  P   O2  O2  OS  CI  H1  H1  CT  H1  OS  
CT  H2  N*  C1  H5  NB  CB  CA  N2  H   H   NC  CQ  H5  NC  CB  CE  H1  CT  HC  
HC  OS  P   O2  O2  OS  CI  H1  H1  CT  H1  OS  CT  H2  N*  C1  H5  NB  CB  CA  
N2  H   H   NC  CQ  H5  NC  CB  CE  H1  CT  HC  HC  OS  P   O2  O2  OS  CI  H1  
H1  CT  H1  OS  CT  H2  N*  C1  H5  NB  CB  CA  N2  H   H   NC  CQ  H5  NC  CB  
CE  H1  CT  HC  HC  OS  P   O2  O2  OS  CI  H1  H1  CT  H1  OS  CT  H2  N*  C1  
H5  NB  CB  CA  N2  H   H   NC  CQ  H5  NC  CB  CE  H1  CT  HC  HC  OH  HO  HO  
OH  CI  H1  H1  CT  H1  OS  CT  H2  N*  C2  H4  C2  CT  HC  HC  HC  C   O   NA  
H   C   O   CE  H1  CT  HC  HC  OS  P   O2  O2  OS  CI  H1  H1  CT  H1  OS  CT  
H2  N*  C2  H4  C2  CT  HC  HC  HC  C   O   NA  H   C   O   CE  H1  CT  HC  HC  
OS  P   O2  O2  OS  CI  H1  H1  CT  H1  OS  CT  H2  N*  C2  H4  C2  CT  HC  HC  
HC  C   O   NA  H   C   O   CE  H1  CT  HC  HC  OS  P   O2  O2  OS  CI  H1  H1  
CT  H1  OS  CT  H2  N*  C2  H4  C2  CT  HC  HC  HC  C   O   NA  H   C   O   CE  
H1  CT  HC  HC  OS  P   O2  O2  OS  CI  H1  H1  CT  H1  OS  CT  H2  N*  C2  H4  
C2  CT  HC  HC  HC  C   O   NA  H   C   O   CE  H1  CT  HC  HC  OS  P   O2  O2  
OS  CI  H1  H1  CT  H1  OS  CT  H2  N*  C2  H4  C2  CT  HC  HC  HC  C   O   NA  
H   C   O   CE  H1  CT  HC  HC  OS  P   O2  O2  OS  CI  H1  H1  CT  H1  OS  CT  
H2  N*  C2  H4  C2  CT  HC  HC  HC  C   O   NA  H   C   O   CE  H1  CT  HC  HC  
OS  P   O2  O2  OS  CI  H1  H1  CT  H1  OS  CT  H2  N*  C2  H4  C2  CT  HC  HC  
HC  C   O   NA  H   C   O   CE  H1  CT  HC  HC  OS  P   O2  O2  OS  CI  H1  H1  
CT  H1  OS  CT  H2  N*  C2  H4  C2  CT  HC  HC  HC  C   O   NA  H   C   O   CE  
H1  CT  HC  HC  OS  P   O2  O2  OS  CI  H1  H1  CT  H1  OS  CT  H2  N*  C2  H4  
C2  CT  HC  HC  HC  C   O   NA  H   C   O   CE  H1  CT  HC  HC  OH  HO  Na+ Na+ 
Na+ Na+ Na+ Na+ Na+ Na+ Na+ Na+ Na+ Na+ Na+ Na+ Na+ Na+ Na+ Na+ 
%FLAG TREE_CHAIN_CLASSIFICATION                                                 
%FORMAT(20a4)                                                                   
M   M   M   E   E   M   E   S   3   E   B   S   E   E   B   B   B   E   E   S   
S   E   E   B   M   E   B   E   E   M   M   E   E   M   M   E   E   M   E   S   
3   E   B   S   E   E   B   B   B   E   E   S   S   E   E   B   M   E   B   E   
E   M   M   E   E   M   M   E   E   M   E   S   3   E   B   S   E   E   B   B   
B   E   E   S   S   E   E   B   M   E   B   E   E   M   M   E   E   M   M   E   
E   M   E   S   3   E   B   S   E   E   B   B   B   E   E   S   S   E   E   B   
M   E   B   E   E   M   M   E   E   M   M   E   E   M   E   S   3   E   B   S   
E   E   B   B   B   E   E   S   S   E   E   B   M   E   B   E   E   M   M   E   
E   M   M   E   E   M   E   S   3   E   B   S   E   E   B   B   B   E   E   S   
S   E   E   B   M   E   B   E   E   M   M   E   E   M   M   E   E   M   E   S   
3   E   B   S   E   E   B   B   B   E   E   S   S   E   E   B   M   E   B   E   
E   M   M   E   E   M   M   E   E   M   E   S   3   E   B   S   E   E   B   B   
B   E   E   S   S   E   E   B   M   E   B   E   E   M   M   E   E   M   M   E   
E   M   E   S   3   E   B   S   E   E   B   B   B   E   E   S   S   E   E   B   
M   E   B   E   E   M   M   E   E   M   M   E   E   M   E   S   3   E   B   S   
E   E   B   B   B   E   E   S   S   E   E   B   M   E   B   E   E   M   M   M   
M   M   E   E   M   E   S   3   E   B   S   E   S   3   E   E   E   B   E   B   
E   B   E   M   E   B   E   E   M   M   E   E   M   M   E   E   M   E   S   3   
E   B   S   E   S   3   E   E   E   B   E   B   E   B   E   M   E   B   E   E   
M   M   E   E   M   M   E   E   M   E   S   3   E   B   S   E   S   3   E   E   
E   B   E   B   E   B   E   M   E   B   E   E   M   M   E   E   M   M   E   E   
M   E   S   3   E   B   S   E   S   3   E   E   E   B   E   B   E   B   E   M   
E   B   E   E   M   M   E   E   M   M   E   E   M   E   S   3   E   B   S   E   
S   3   E   E   E   B   E   B   E   B   E   M   E   B   E   E   M   M   E   E   
M   M   E   E   M   E   S   3   E   B   S   E   S   3   E   E   E   B   E   B   
E   B   E   M   E   B   E   E   M   M   E   E   M   M   E   E   M   E   S   3   
E   B   S   E   S   3   E   E   E   B   E   B   E   B   E   M   E   B   E   E   
M   M   E   E   M   M   E   E   M   E   S   3   E   B   S   E   S   3   E   E   
E   B   E   B   E   B   E   M   E   B   E   E   M   M   E   E   M   M   E   E   
M   E   S   3   E   B   S   E   S   3   E   E   E   B   E   B   E   B   E   M   
E   B   E   E   M   M   E   E   M   M   E   E   M   E   S   3   E   B   S   E   
S   3   E   E   E   B   E   B   E   B   E   M   E   B   E   E   M   M   M   M   
M   M   M   M   M   M   M   M   M   M   M   M   M   M   M   M   
%FLAG JOIN_ARRAY                                                                
%FORMAT(10I8)                                                                   
       0       0       0       0       0       0       0       0       0       0
       0       0       0       0       0       0       0       0       0       0
       0       0       0       0       0       0       0       0       0       0
       0       0       0       0       0       0       0       0       0       0
       0       0       0       0       0       0       0       0       0       0
       0       0       0       0       0       0       0       0       0       0
       0       0       0       0       0       0       0       0       0       0
       0       0       0       0       0       0       0       0       0       0
       0       0       0       0       0       0       0       0       0       0
       0       0       0       0       0       0       0       0       0       0
       0       0       0       0       0       0       0       0       0       0
       0       0       0       0       0       0       0       0       0       0
       0       0       0       0       0       0       0       0       0       0
       0       0       0       0       0       0       0       0       0       0
       0       0       0       0       0       0       0       0       0       0
       0       0       0       0       0       0       0       0       0       0
       0       0       0       0       0       0       0       0       0       0
       0       0       0       0       0       0       0       0       0       0
       0       0       0       0       0       0       0       0       0       0
       0       0       0       0       0       0       0       0       0       0
       0       0       0       0       0       0       0       0       0       0
       0       0       0       0       0       0       0       0       0       0
       0       0       0       0       0       0       0       0       0       0
       0       0       0       0       0       0       0       0       0       0
       0       0       0       0       0       0       0       0       0       0
       0       0       0       0       0       0       0       0       0       0
       0       0       0       0       0       0       0       0       0       0
       0       0       0       0       0       0       0       0       0       0
       0       0       0       0       0       0       0       0       0       0
       0       0       0       0       0       0       0       0       0       0
       0       0       0       0       0       0       0       0       0       0
       0       0       0       0       0       0       0       0       0       0
       0       0       0       0       0       0       0       0       0       0
       0       0       0       0       0       0       0       0       0       0
       0       0       0       0       0       0       0       0       0       0
       0       0       0       0       0       0       0       0       0       0
       0       0       0       0       0       0       0       0       0       0
       0       0       0       0       0       0       0       0       0       0
       0       0       0       0       0       0       0       0       0       0
       0       0       0       0       0       0       0       0       0       0
       0       0       0       0       0       0       0       0       0       0
       0       0       0       0       0       0       0       0       0       0
       0       0       0       0       0       0       0       0       0       0
       0       0       0       0       0       0       0       0       0       0
       0       0       0       0       0       0       0       0       0       0
       0       0       0       0       0       0       0       0       0       0
       0       0       0       0       0       0       0       0       0       0
       0       0       0       0       0       0       0       0       0       0
       0       0       0       0       0       0       0       0       0       0
       0       0       0       0       0       0       0       0       0       0
       0       0       0       0       0       0       0       0       0       0
       0       0       0       0       0       0       0       0       0       0
       0       0       0       0       0       0       0       0       0       0
       0       0       0       0       0       0       0       0       0       0
       0       0       0       0       0       0       0       0       0       0
       0       0       0       0       0       0       0       0       0       0
       0       0       0       0       0       0       0       0       0       0
       0       0       0       0       0       0       0       0       0       0
       0       0       0       0       0       0       0       0       0       0
       0       0       0       0       0       0       0       0       0       0
       0       0       0       0       0       0       0       0       0       0
       0       0       0       0       0       0       0       0       0       0
       0       0       0       0       0       0       0       0       0       0
       0       0       0       0       0       0       0       0       0       0
       0       0       0       0       0       0       0       0       0       0
       0       0       0       0       0       0
%FLAG IROTAT                                                                    
%FORMAT(10I8)                                                                   
       0       0       0       0       0       0       0       0       0       0
       0       0       0       0       0       0       0       0       0       0
       0       0       0       0       0       0       0       0       0       0
       0       0       0       0       0       0       0       0       0       0
       0       0       0       0       0       0       0       0       0       0
       0       0       0       0       0       0       0       0       0       0
       0       0       0       0       0       0       0       0       0       0
       0       0       0       0       0       0       0       0       0       0
       0       0       0       0       0       0       0       0       0       0
       0       0       0       0       0       0       0       0       0       0
       0       0       0       0       0       0       0       0       0       0
       0       0       0       0       0       0       0       0       0       0
       0       0       0       0       0       0       0       0       0       0
       0       0       0       0       0       0       0       0       0       0
       0       0       0       0       0       0       0       0       0       0
       0       0       0       0       0       0       0       0       0       0
       0       0       0       0       0       0       0       0       0       0
       0       0       0       0       0       0       0       0       0       0
       0       0       0       0       0       0       0       0       0       0
       0       0       0       0       0       0       0       0       0       0
       0       0       0       0       0       0       0       0       0       0
       0       0       0       0       0       0       0       0       0       0
       0       0       0       0       0       0       0       0       0       0
       0       0       0       0       0       0       0       0       0       0
       0       0       0       0       0       0       0       0       0       0
       0       0       0       0       0       0       0       0       0       0
       0       0       0       0       0       0       0       0       0       0
       0       0       0       0       0       0       0       0       0       0
       0       0       0       0       0       0       0       0       0       0
       0       0       0       0       0       0       0       0       0       0
       0       0       0       0       0       0       0       0       0       0
       0       0       0       0       0       0       0       0       0       0
       0       0       0       0       0       0       0       0       0       0
       0       0       0       0       0       0       0       0       0       0
       0       0       0       0       0       0       0       0       0       0
       0       0       0       0       0       0       0       0       0       0
       0       0       0       0       0       0       0       0       0       0
       0       0       0       0       0       0       0       0       0       0
       0       0       0       0       0       0       0       0       0       0
       0       0       0       0       0       0       0       0       0       0
       0       0       0       0       0       0       0       0       0       0
       0       0       0       0       0       0       0       0       0       0
       0       0       0       0       0       0       0       0       0       0
       0       0       0       0       0       0       0       0       0       0
       0       0       0       0       0       0       0       0       0       0
       0       0       0       0       0       0       0       0       0       0
       0       0       0       0       0       0       0       0       0       0
       0       0       0       0       0       0       0       0       0       0
       0       0       0       0       0       0       0       0       0       0
       0       0       0       0       0       0       0       0       0       0
       0       0       0       0       0       0       0       0       0       0
       0       0       0       0       0       0       0       0       0       0
       0       0       0       0       0       0       0       0       0       0
       0       0       0       0       0       0       0       0       0       0
       0       0       0       0       0       0       0       0       0       0
       0       0       0       0       0       0       0       0       0       0
       0       0       0       0       0       0       0       0       0       0
       0       0       0       0       0       0       0       0       0       0
       0       0       0       0       0       0       0       0       0       0
       0       0       0       0       0       0       0       0       0       0
       0       0       0       0       0       0       0       0       0       0
       0       0       0       0       0       0       0       0       0       0
       0       0       0       0       0       0       0       0       0       0
       0       0       0       0       0       0       0       0       0       0
       0       0       0       0       0       0       0       0       0       0
       0       0       0       0       0       0
%FLAG RADIUS_SET                                                                
%FORMAT(1a80)                                                                   
modified Bondi radii (mbondi)                                                   
%FLAG RADII                                                                     
%FORMAT(5E16.8)                                                                 
  8.00000000E-01  1.50000000E+00  1.70000000E+00  1.30000000E+00  1.30000000E+00
  1.70000000E+00  1.30000000E+00  1.50000000E+00  1.70000000E+00  1.30000000E+00
  1.55000000E+00  1.70000000E+00  1.30000000E+00  1.55000000E+00  1.70000000E+00
  1.70000000E+00  1.55000000E+00  1.30000000E+00  1.30000000E+00  1.55000000E+00
  1.70000000E+00  1.30000000E+00  1.55000000E+00  1.70000000E+00  1.70000000E+00
  1.30000000E+00  1.70000000E+00  1.30000000E+00  1.30000000E+00  1.50000000E+00
  1.85000000E+00  1.50000000E+00  1.50000000E+00  1.50000000E+00  1.70000000E+00
  1.30000000E+00  1.30000000E+00  1.70000000E+00  1.30000000E+00  1.50000000E+00
  1.70000000E+00  1.30000000E+00  1.55000000E+00  1.70000000E+00  1.30000000E+00
  1.55000000E+00  1.70000000E+00  1.70000000E+00  1.55000000E+00  1.30000000E+00
  1.30000000E+00  1.55000000E+00  1.70000000E+00  1.30000000E+00  1.55000000E+00
  1.70000000E+00  1.70000000E+00  1.30000000E+00  1.70000000E+00  1.30000000E+00
  1.30000000E+00  1.50000000E+00  1.85000000E+00  1.50000000E+00  1.50000000E+00
  1.50000000E+00  1.70000000E+00  1.30000000E+00  1.30000000E+00  1.70000000E+00
  1.30000000E+00  1.50000000E+00  1.70000000E+00  1.30000000E+00  1.55000000E+00
  1.70000000E+00  1.30000000E+00  1.55000000E+00  1.70000000E+00  1.70000000E+00
  1.55000000E+00  1.30000000E+00  1.30000000E+00  1.55000000E+00  1.70000000E+00
  1.30000000E+00  1.55000000E+00  1.70000000E+00  1.70000000E+00  1.30000000E+00
  1.70000000E+00  1.30000000E+00  1.30000000E+00  1.50000000E+00  1.85000000E+00
  1.50000000E+00  1.50000000E+00  1.50000000E+00  1.70000000E+00  1.30000000E+00
  1.30000000E+00  1.70000000E+00  1.30000000E+00  1.50000000E+00  1.70000000E+00
  1.30000000E+00  1.55000000E+00  1.70000000E+00  1.30000000E+00  1.55000000E+00
  1.70000000E+00  1.70000000E+00  1.55000000E+00  1.30000000E+00  1.30000000E+00
  1.55000000E+00  1.70000000E+00  1.30000000E+00  1.55000000E+00  1.70000000E+00
  1.70000000E+00  1.30000000E+00  1.70000000E+00  1.30000000E+00  1.30000000E+00
  1.50000000E+00  1.85000000E+00  1.50000000E+00  1.50000000E+00  1.50000000E+00
  1.70000000E+00  1.30000000E+00  1.30000000E+00  1.70000000E+00  1.30000000E+00
  1.50000000E+00  1.70000000E+00  1.30000000E+00  1.55000000E+00  1.70000000E+00
  1.30000000E+00  1.55000000E+00  1.70000000E+00  1.70000000E+00  1.55000000E+00
  1.30000000E+00  1.30000000E+00  1.55000000E+00  1.70000000E+00  1.30000000E+00
  1.55000000E+00  1.70000000E+00  1.70000000E+00  1.30000000E+00  1.70000000E+00
  1.30000000E+00  1.30000000E+00  1.50000000E+00  1.85000000E+00  1.50000000E+00
  1.50000000E+00  1.50000000E+00  1.70000000E+00  1.30000000E+00  1.30000000E+00
  1.70000000E+00  1.30000000E+00  1.50000000E+00  1.70000000E+00  1.30000000E+00
  1.55000000E+00  1.70000000E+00  1.30000000E+00  1.55000000E+00  1.70000000E+00
  1.70000000E+00  1.55000000E+00  1.30000000E+00  1.30000000E+00  1.55000000E+00
  1.70000000E+00  1.30000000E+00  1.55000000E+00  1.70000000E+00  1.70000000E+00
  1.30000000E+00  1.70000000E+00  1.30000000E+00  1.30000000E+00  1.50000000E+00
  1.85000000E+00  1.50000000E+00  1.50000000E+00  1.50000000E+00  1.70000000E+00
  1.30000000E+00  1.30000000E+00  1.70000000E+00  1.30000000E+00  1.50000000E+00
  1.70000000E+00  1.30000000E+00  1.55000000E+00  1.70000000E+00  1.30000000E+00
  1.55000000E+00  1.70000000E+00  1.70000000E+00  1.55000000E+00  1.30000000E+00
  1.30000000E+00  1.55000000E+00  1.70000000E+00  1.30000000E+00  1.55000000E+00
  1.70000000E+00  1.70000000E+00  1.30000000E+00  1.70000000E+00  1.30000000E+00
  1.30000000E+00  1.50000000E+00  1.85000000E+00  1.50000000E+00  1.50000000E+00
  1.50000000E+00  1.70000000E+00  1.30000000E+00  1.30000000E+00  1.70000000E+00
  1.30000000E+00  1.50000000E+00  1.70000000E+00  1.30000000E+00  1.55000000E+00
  1.70000000E+00  1.30000000E+00  1.55000000E+00  1.70000000E+00  1.70000000E+00
  1.55000000E+00  1.30000000E+00  1.30000000E+00  1.55000000E+00  1.70000000E+00
  1.30000000E+00  1.55000000E+00  1.70000000E+00  1.70000000E+00  1.30000000E+00
  1.70000000E+00  1.30000000E+00  1.30000000E+00  1.50000000E+00  1.85000000E+00
  1.50000000E+00  1.50000000E+00  1.50000000E+00  1.70000000E+00  1.30000000E+00
  1.30000000E+00  1.70000000E+00  1.30000000E+00  1.50000000E+00  1.70000000E+00
  1.30000000E+00  1.55000000E+00  1.70000000E+00  1.30000000E+00  1.55000000E+00
  1.70000000E+00  1.70000000E+00  1.55000000E+00  1.30000000E+00  1.30000000E+00
  1.55000000E+00  1.70000000E+00  1.30000000E+00  1.55000000E+00  1.70000000E+00
  1.70000000E+00  1.30000000E+00  1.70000000E+00  1.30000000E+00  1.30000000E+00
  1.50000000E+00  1.85000000E+00  1.50000000E+00  1.50000000E+00  1.50000000E+00
  1.70000000E+00  1.30000000E+00  1.30000000E+00  1.70000000E+00  1.30000000E+00
  1.50000000E+00  1.70000000E+00  1.30000000E+00  1.55000000E+00  1.70000000E+00
  1.30000000E+00  1.55000000E+00  1.70000000E+00  1.70000000E+00  1.55000000E+00
  1.30000000E+00  1.30000000E+00  1.55000000E+00  1.70000000E+00  1.30000000E+00
  1.55000000E+00  1.70000000E+00  1.70000000E+00  1.30000000E+00  1.70000000E+00
  1.30000000E+00  1.30000000E+00  1.50000000E+00  8.00000000E-01  8.00000000E-01
  1.50000000E+00  1.70000000E+00  1.30000000E+00  1.30000000E+00  1.70000000E+00
  1.30000000E+00  1.50000000E+00  1.70000000E+00  1.30000000E+00  1.55000000E+00
  1.70000000E+00  1.30000000E+00  1.70000000E+00  1.70000000E+00  1.30000000E+00
  1.30000000E+00  1.30000000E+00  1.70000000E+00  1.50000000E+00  1.55000000E+00
  1.30000000E+00  1.70000000E+00  1.50000000E+00  1.70000000E+00  1.30000000E+00
  1.70000000E+00  1.30000000E+00  1.30000000E+00  1.50000000E+00  1.85000000E+00
  1.50000000E+00  1.50000000E+00  1.50000000E+00  1.70000000E+00  1.30000000E+00
  1.30000000E+00  1.70000000E+00  1.30000000E+00  1.50000000E+00  1.70000000E+00
  1.30000000E+00  1.55000000E+00  1.70000000E+00  1.30000000E+00  1.70000000E+00
  1.70000000E+00  1.30000000E+00  1.30000000E+00  1.30000000E+00  1.70000000E+00
  1.50000000E+00  1.55000000E+00  1.30000000E+00  1.70000000E+00  1.50000000E+00
  1.70000000E+00  1.30000000E+00  1.70000000E+00  1.30000000E+00  1.30000000E+00
  1.50000000E+00  1.85000000E+00  1.50000000E+00  1.50000000E+00  1.50000000E+00
  1.70000000E+00  1.30000000E+00  1.30000000E+00  1.70000000E+00  1.30000000E+00
  1.50000000E+00  1.70000000E+00  1.30000000E+00  1.55000000E+00  1.70000000E+00
  1.30000000E+00  1.70000000E+00  1.70000000E+00  1.30000000E+00  1.30000000E+00
  1.30000000E+00  1.70000000E+00  1.50000000E+00  1.55000000E+00  1.30000000E+00
  1.70000000E+00  1.50000000E+00  1.70000000E+00  1.30000000E+00  1.70000000E+00
  1.30000000E+00  1.30000000E+00  1.50000000E+00  1.85000000E+00  1.50000000E+00
  1.50000000E+00  1.50000000E+00  1.70000000E+00  1.30000000E+00  1.30000000E+00
  1.70000000E+00  1.30000000E+00  1.50000000E+00  1.70000000E+00  1.30000000E+00
  1.55000000E+00  1.70000000E+00  1.30000000E+00  1.70000000E+00  1.70000000E+00
  1.30000000E+00  1.30000000E+00  1.30000000E+00  1.70000000E+00  1.50000000E+00
  1.55000000E+00  1.30000000E+00  1.70000000E+00  1.50000000E+00  1.70000000E+00
  1.30000000E+00  1.70000000E+00  1.30000000E+00  1.30000000E+00  1.50000000E+00
  1.85000000E+00  1.50000000E+00  1.50000000E+00  1.50000000E+00  1.70000000E+00
  1.30000000E+00  1.30000000E+00  1.70000000E+00  1.30000000E+00  1.50000000E+00
  1.70000000E+00  1.30000000E+00  1.55000000E+00  1.70000000E+00  1.30000000E+00
  1.70000000E+00  1.70000000E+00  1.30000000E+00  1.30000000E+00  1.30000000E+00
  1.70000000E+00  1.50000000E+00  1.55000000E+00  1.30000000E+00  1.70000000E+00
  1.50000000E+00  1.70000000E+00  1.30000000E+00  1.70000000E+00  1.30000000E+00
  1.30000000E+00  1.50000000E+00  1.85000000E+00  1.50000000E+00  1.50000000E+00
  1.50000000E+00  1.70000000E+00  1.30000000E+00  1.30000000E+00  1.70000000E+00
  1.30000000E+00  1.50000000E+00  1.70000000E+00  1.30000000E+00  1.55000000E+00
  1.70000000E+00  1.30000000E+00  1.70000000E+00  1.70000000E+00  1.30000000E+00
  1.30000000E+00  1.30000000E+00  1.70000000E+00  1.50000000E+00  1.55000000E+00
  1.30000000E+00  1.70000000E+00  1.50000000E+00  1.70000000E+00  1.30000000E+00
  1.70000000E+00  1.30000000E+00  1.30000000E+00  1.50000000E+00  1.85000000E+00
  1.50000000E+00  1.50000000E+00  1.50000000E+00  1.70000000E+00  1.30000000E+00
  1.30000000E+00  1.70000000E+00  1.30000000E+00  1.50000000E+00  1.70000000E+00
  1.30000000E+00  1.55000000E+00  1.70000000E+00  1.30000000E+00  1.70000000E+00
  1.70000000E+00  1.30000000E+00  1.30000000E+00  1.30000000E+00  1.70000000E+00
  1.50000000E+00  1.55000000E+00  1.30000000E+00  1.70000000E+00  1.50000000E+00
  1.70000000E+00  1.30000000E+00  1.70000000E+00  1.30000000E+00  1.30000000E+00
  1.50000000E+00  1.85000000E+00  1.50000000E+00  1.50000000E+00  1.50000000E+00
  1.70000000E+00  1.30000000E+00  1.30000000E+00  1.70000000E+00  1.30000000E+00
  1.50000000E+00  1.70000000E+00  1.30000000E+00  1.55000000E+00  1.70000000E+00
  1.30000000E+00  1.70000000E+00  1.70000000E+00  1.30000000E+00  1.30000000E+00
  1.30000000E+00  1.70000000E+00  1.50000000E+00  1.55000000E+00  1.30000000E+00
  1.70000000E+00  1.50000000E+00  1.70000000E+00  1.30000000E+00  1.70000000E+00
  1.30000000E+00  1.30000000E+00  1.50000000E+00  1.85000000E+00  1.50000000E+00
  1.50000000E+00  1.50000000E+00  1.70000000E+00  1.30000000E+00  1.30000000E+00
  1.70000000E+00  1.30000000E+00  1.50000000E+00  1.70000000E+00  1.30000000E+00
  1.55000000E+00  1.70000000E+00  1.30000000E+00  1.70000000E+00  1.70000000E+00
  1.30000000E+00  1.30000000E+00  1.30000000E+00  1.70000000E+00  1.50000000E+00
  1.55000000E+00  1.30000000E+00  1.70000000E+00  1.50000000E+00  1.70000000E+00
  1.30000000E+00  1.70000000E+00  1.30000000E+00  1.30000000E+00  1.50000000E+00
  1.85000000E+00  1.50000000E+00  1.50000000E+00  1.50000000E+00  1.70000000E+00
  1.30000000E+00  1.30000000E+00  1.70000000E+00  1.30000000E+00  1.50000000E+00
  1.70000000E+00  1.30000000E+00  1.55000000E+00  1.70000000E+00  1.30000000E+00
  1.70000000E+00  1.70000000E+00  1.30000000E+00  1.30000000E+00  1.30000000E+00
  1.70000000E+00  1.50000000E+00  1.55000000E+00  1.30000000E+00  1.70000000E+00
  1.50000000E+00  1.70000000E+00  1.30000000E+00  1.70000000E+00  1.30000000E+00
  1.30000000E+00  1.50000000E+00  8.00000000E-01  1.50000000E+00  1.50000000E+00
  1.50000000E+00  1.50000000E+00  1.50000000E+00  1.50000000E+00  1.50000000E+00
  1.50000000E+00  1.50000000E+00  1.50000000E+00  1.50000000E+00  1.50000000E+00
  1.50000000E+00  1.50000000E+00  1.50000000E+00  1.50000000E+00  1.50000000E+00
  1.50000000E+00
%FLAG SCREEN                                                                    
%FORMAT(5E16.8)                                                                 
  8.50000000E-01  8.50000000E-01  7.20000000E-01  8.50000000E-01  8.50000000E-01
  7.20000000E-01  8.50000000E-01  8.50000000E-01  7.20000000E-01  8.50000000E-01
  7.90000000E-01  7.20000000E-01  8.50000000E-01  7.90000000E-01  7.20000000E-01
  7.20000000E-01  7.90000000E-01  8.50000000E-01  8.50000000E-01  7.90000000E-01
  7.20000000E-01  8.50000000E-01  7.90000000E-01  7.20000000E-01  7.20000000E-01
  8.50000000E-01  7.20000000E-01  8.50000000E-01  8.50000000E-01  8.50000000E-01
  8.60000000E-01  8.50000000E-01  8.50000000E-01  8.50000000E-01  7.20000000E-01
  8.50000000E-01  8.50000000E-01  7.20000000E-01  8.50000000E-01  8.50000000E-01
  7.20000000E-01  8.50000000E-01  7.90000000E-01  7.20000000E-01  8.50000000E-01
  7.90000000E-01  7.20000000E-01  7.20000000E-01  7.90000000E-01  8.50000000E-01
  8.50000000E-01  7.90000000E-01  7.20000000E-01  8.50000000E-01  7.90000000E-01
  7.20000000E-01  7.20000000E-01  8.50000000E-01  7.20000000E-01  8.50000000E-01
  8.50000000E-01  8.50000000E-01  8.60000000E-01  8.50000000E-01  8.50000000E-01
  8.50000000E-01  7.20000000E-01  8.50000000E-01  8.50000000E-01  7.20000000E-01
  8.50000000E-01  8.50000000E-01  7.20000000E-01  8.50000000E-01  7.90000000E-01
  7.20000000E-01  8.50000000E-01  7.90000000E-01  7.20000000E-01  7.20000000E-01
  7.90000000E-01  8.50000000E-01  8.50000000E-01  7.90000000E-01  7.20000000E-01
  8.50000000E-01  7.90000000E-01  7.20000000E-01  7.20000000E-01  8.50000000E-01
  7.20000000E-01  8.50000000E-01  8.50000000E-01  8.50000000E-01  8.60000000E-01
  8.50000000E-01  8.50000000E-01  8.50000000E-01  7.20000000E-01  8.50000000E-01
  8.50000000E-01  7.20000000E-01  8.50000000E-01  8.50000000E-01  7.20000000E-01
  8.50000000E-01  7.90000000E-01  7.20000000E-01  8.50000000E-01  7.90000000E-01
  7.20000000E-01  7.20000000E-01  7.90000000E-01  8.50000000E-01  8.50000000E-01
  7.90000000E-01  7.20000000E-01  8.50000000E-01  7.90000000E-01  7.20000000E-01
  7.20000000E-01  8.50000000E-01  7.20000000E-01  8.50000000E-01  8.50000000E-01
  8.50000000E-01  8.60000000E-01  8.50000000E-01  8.50000000E-01  8.50000000E-01
  7.20000000E-01  8.50000000E-01  8.50000000E-01  7.20000000E-01  8.50000000E-01
  8.50000000E-01  7.20000000E-01  8.50000000E-01  7.90000000E-01  7.20000000E-01
  8.50000000E-01  7.90000000E-01  7.20000000E-01  7.20000000E-01  7.90000000E-01
  8.50000000E-01  8.50000000E-01  7.90000000E-01  7.20000000E-01  8.50000000E-01
  7.90000000E-01  7.20000000E-01  7.20000000E-01  8.50000000E-01  7.20000000E-01
  8.50000000E-01  8.50000000E-01  8.50000000E-01  8.60000000E-01  8.50000000E-01
  8.50000000E-01  8.50000000E-01  7.20000000E-01  8.50000000E-01  8.50000000E-01
  7.20000000E-01  8.50000000E-01  8.50000000E-01  7.20000000E-01  8.50000000E-01
  7.90000000E-01  7.20000000E-01  8.50000000E-01  7.90000000E-01  7.20000000E-01
  7.20000000E-01  7.90000000E-01  8.50000000E-01  8.50000000E-01  7.90000000E-01
  7.20000000E-01  8.50000000E-01  7.90000000E-01  7.20000000E-01  7.20000000E-01
  8.50000000E-01  7.20000000E-01  8.50000000E-01  8.50000000E-01  8.50000000E-01
  8.60000000E-01  8.50000000E-01  8.50000000E-01  8.50000000E-01  7.20000000E-01
  8.50000000E-01  8.50000000E-01  7.20000000E-01  8.50000000E-01  8.50000000E-01
  7.20000000E-01  8.50000000E-01  7.90000000E-01  7.20000000E-01  8.50000000E-01
  7.90000000E-01  7.20000000E-01  7.20000000E-01  7.90000000E-01  8.50000000E-01
  8.50000000E-01  7.90000000E-01  7.20000000E-01  8.50000000E-01  7.90000000E-01
  7.20000000E-01  7.20000000E-01  8.50000000E-01  7.20000000E-01  8.50000000E-01
  8.50000000E-01  8.50000000E-01  8.60000000E-01  8.50000000E-01  8.50000000E-01
  8.50000000E-01  7.20000000E-01  8.50000000E-01  8.50000000E-01  7.20000000E-01
  8.50000000E-01  8.50000000E-01  7.20000000E-01  8.50000000E-01  7.90000000E-01
  7.20000000E-01  8.50000000E-01  7.90000000E-01  7.20000000E-01  7.20000000E-01
  7.90000000E-01  8.50000000E-01  8.50000000E-01  7.90000000E-01  7.20000000E-01
  8.50000000E-01  7.90000000E-01  7.20000000E-01  7.20000000E-01  8.50000000E-01
  7.20000000E-01  8.50000000E-01  8.50000000E-01  8.50000000E-01  8.60000000E-01
  8.50000000E-01  8.50000000E-01  8.50000000E-01  7.20000000E-01  8.50000000E-01
  8.50000000E-01  7.20000000E-01  8.50000000E-01  8.50000000E-01  7.20000000E-01
  8.50000000E-01  7.90000000E-01  7.20000000E-01  8.50000000E-01  7.90000000E-01
  7.20000000E-01  7.20000000E-01  7.90000000E-01  8.50000000E-01  8.50000000E-01
  7.90000000E-01  7.20000000E-01  8.50000000E-01  7.90000000E-01  7.20000000E-01
  7.20000000E-01  8.50000000E-01  7.20000000E-01  8.50000000E-01  8.50000000E-01
  8.50000000E-01  8.60000000E-01  8.50000000E-01  8.50000000E-01  8.50000000E-01
  7.20000000E-01  8.50000000E-01  8.50000000E-01  7.20000000E-01  8.50000000E-01
  8.50000000E-01  7.20000000E-01  8.50000000E-01  7.90000000E-01  7.20000000E-01
  8.50000000E-01  7.90000000E-01  7.20000000E-01  7.20000000E-01  7.90000000E-01
  8.50000000E-01  8.50000000E-01  7.90000000E-01  7.20000000E-01  8.50000000E-01
  7.90000000E-01  7.20000000E-01  7.20000000E-01  8.50000000E-01  7.20000000E-01
  8.50000000E-01  8.50000000E-01  8.50000000E-01  8.50000000E-01  8.50000000E-01
  8.50000000E-01  7.20000000E-01  8.50000000E-01  8.50000000E-01  7.20000000E-01
  8.50000000E-01  8.50000000E-01  7.20000000E-01  8.50000000E-01  7.90000000E-01
  7.20000000E-01  8.50000000E-01  7.20000000E-01  7.20000000E-01  8.50000000E-01
  8.50000000E-01  8.50000000E-01  7.20000000E-01  8.50000000E-01  7.90000000E-01
  8.50000000E-01  7.20000000E-01  8.50000000E-01  7.20000000E-01  8.50000000E-01
  7.20000000E-01  8.50000000E-01  8.50000000E-01  8.50000000E-01  8.60000000E-01
  8.50000000E-01  8.50000000E-01  8.50000000E-01  7.20000000E-01  8.50000000E-01
  8.50000000E-01  7.20000000E-01  8.50000000E-01  8.50000000E-01  7.20000000E-01
  8.50000000E-01  7.90000000E-01  7.20000000E-01  8.50000000E-01  7.20000000E-01
  7.20000000E-01  8.50000000E-01  8.50000000E-01  8.50000000E-01  7.20000000E-01
  8.50000000E-01  7.90000000E-01  8.50000000E-01  7.20000000E-01  8.50000000E-01
  7.20000000E-01  8.50000000E-01  7.20000000E-01  8.50000000E-01  8.50000000E-01
  8.50000000E-01  8.60000000E-01  8.50000000E-01  8.50000000E-01  8.50000000E-01
  7.20000000E-01  8.50000000E-01  8.50000000E-01  7.20000000E-01  8.50000000E-01
  8.50000000E-01  7.20000000E-01  8.50000000E-01  7.90000000E-01  7.20000000E-01
  8.50000000E-01  7.20000000E-01  7.20000000E-01  8.50000000E-01  8.50000000E-01
  8.50000000E-01  7.20000000E-01  8.50000000E-01  7.90000000E-01  8.50000000E-01
  7.20000000E-01  8.50000000E-01  7.20000000E-01  8.50000000E-01  7.20000000E-01
  8.50000000E-01  8.50000000E-01  8.50000000E-01  8.60000000E-01  8.50000000E-01
  8.50000000E-01  8.50000000E-01  7.20000000E-01  8.50000000E-01  8.50000000E-01
  7.20000000E-01  8.50000000E-01  8.50000000E-01  7.20000000E-01  8.50000000E-01
  7.90000000E-01  7.20000000E-01  8.50000000E-01  7.20000000E-01  7.20000000E-01
  8.50000000E-01  8.50000000E-01  8.50000000E-01  7.20000000E-01  8.50000000E-01
  7.90000000E-01  8.50000000E-01  7.20000000E-01  8.50000000E-01  7.20000000E-01
  8.50000000E-01  7.20000000E-01  8.50000000E-01  8.50000000E-01  8.50000000E-01
  8.60000000E-01  8.50000000E-01  8.50000000E-01  8.50000000E-01  7.20000000E-01
  8.50000000E-01  8.50000000E-01  7.20000000E-01  8.50000000E-01  8.50000000E-01
  7.20000000E-01  8.50000000E-01  7.90000000E-01  7.20000000E-01  8.50000000E-01
  7.20000000E-01  7.20000000E-01  8.50000000E-01  8.50000000E-01  8.50000000E-01
  7.20000000E-01  8.50000000E-01  7.90000000E-01  8.50000000E-01  7.20000000E-01
  8.50000000E-01  7.20000000E-01  8.50000000E-01  7.20000000E-01  8.50000000E-01
  8.50000000E-01  8.50000000E-01  8.60000000E-01  8.50000000E-01  8.50000000E-01
  8.50000000E-01  7.20000000E-01  8.50000000E-01  8.50000000E-01  7.20000000E-01
  8.50000000E-01  8.50000000E-01  7.20000000E-01  8.50000000E-01  7.90000000E-01
  7.20000000E-01  8.50000000E-01  7.20000000E-01  7.20000000E-01  8.50000000E-01
  8.50000000E-01  8.50000000E-01  7.20000000E-01  8.50000000E-01  7.90000000E-01
  8.50000000E-01  7.20000000E-01  8.50000000E-01  7.20000000E-01  8.50000000E-01
  7.20000000E-01  8.50000000E-01  8.50000000E-01  8.50000000E-01  8.60000000E-01
  8.50000000E-01  8.50000000E-01  8.50000000E-01  7.20000000E-01  8.50000000E-01
  8.50000000E-01  7.20000000E-01  8.50000000E-01  8.50000000E-01  7.20000000E-01
  8.50000000E-01  7.90000000E-01  7.20000000E-01  8.50000000E-01  7.20000000E-01
  7.20000000E-01  8.50000000E-01  8.50000000E-01  8.50000000E-01  7.20000000E-01
  8.50000000E-01  7.90000000E-01  8.50000000E-01  7.20000000E-01  8.50000000E-01
  7.20000000E-01  8.50000000E-01  7.20000000E-01  8.50000000E-01  8.50000000E-01
  8.50000000E-01  8.60000000E-01  8.50000000E-01  8.50000000E-01  8.50000000E-01
  7.20000000E-01  8.50000000E-01  8.50000000E-01  7.20000000E-01  8.50000000E-01
  8.50000000E-01  7.20000000E-01  8.50000000E-01  7.90000000E-01  7.20000000E-01
  8.50000000E-01  7.20000000E-01  7.20000000E-01  8.50000000E-01  8.50000000E-01
  8.50000000E-01  7.20000000E-01  8.50000000E-01  7.90000000E-01  8.50000000E-01
  7.20000000E-01  8.50000000E-01  7.20000000E-01  8.50000000E-01  7.20000000E-01
  8.50000000E-01  8.50000000E-01  8.50000000E-01  8.60000000E-01  8.50000000E-01
  8.50000000E-01  8.50000000E-01  7.20000000E-01  8.50000000E-01  8.50000000E-01
  7.20000000E-01  8.50000000E-01  8.50000000E-01  7.20000000E-01  8.50000000E-01
  7.90000000E-01  7.20000000E-01  8.50000000E-01  7.20000000E-01  7.20000000E-01
  8.50000000E-01  8.50000000E-01  8.50000000E-01  7.20000000E-01  8.50000000E-01
  7.90000000E-01  8.50000000E-01  7.20000000E-01  8.50000000E-01  7.20000000E-01
  8.50000000E-01  7.20000000E-01  8.50000000E-01  8.50000000E-01  8.50000000E-01
  8.60000000E-01  8.50000000E-01  8.50000000E-01  8.50000000E-01  7.20000000E-01
  8.50000000E-01  8.50000000E-01  7.20000000E-01  8.50000000E-01  8.50000000E-01
  7.20000000E-01  8.50000000E-01  7.90000000E-01  7.20000000E-01  8.50000000E-01
  7.20000000E-01  7.20000000E-01  8.50000000E-01  8.50000000E-01  8.50000000E-01
  7.20000000E-01  8.50000000E-01  7.90000000E-01  8.50000000E-01  7.20000000E-01
  8.50000000E-01  7.20000000E-01  8.50000000E-01  7.20000000E-01  8.50000000E-01
  8.50000000E-01  8.50000000E-01  8.50000000E-01  8.00000000E-01  8.00000000E-01
  8.00000000E-01  8.00000000E-01  8.00000000E-01  8.00000000E-01  8.00000000E-01
  8.00000000E-01  8.00000000E-01  8.00000000E-01  8.00000000E-01  8.00000000E-01
  8.00000000E-01  8.00000000E-01  8.00000000E-01  8.00000000E-01  8.00000000E-01
  8.00000000E-01
%FLAG IPOL                                                                      
%FORMAT(1I8)                                                                    
       0
